LAMMPS (2 Jul 2021)
KOKKOS mode is enabled (src/KOKKOS/kokkos.cpp:97)
  will use up to 1 GPU(s) per node
  using 1 OpenMP thread(s) per MPI task
Lattice spacing in x,y,z = 3.3160000 3.3160000 3.3160000
Created orthogonal box = (0.0000000 0.0000000 0.0000000) to (39.792000 39.792000 39.792000)
  1 by 1 by 1 MPI processor grid
Created 3456 atoms
  create_atoms CPU = 0.002 seconds
Reading potential file Ta06A.snapcoeff with DATE: 2014-09-05
SNAP Element = Ta, Radius 0.5, Weight 1
Reading potential file Ta06A.snapparam with DATE: 2014-09-05
SNAP keyword rcutfac 4.67637
SNAP keyword twojmax 6
SNAP keyword rfac0 0.99363
SNAP keyword rmin0 0
SNAP keyword bzeroflag 0
SNAP keyword quadraticflag 0
Neighbor list info ...
  update every 1 steps, delay 0 steps, check yes
  max neighbors/atom: 2000, page size: 100000
  master list distance cutoff = 5.8
  ghost atom cutoff = 5.8
  binsize = 5.8, bins = 7 7 7
  2 neighbor lists, perpetual/occasional/extra = 2 0 0
  (1) pair zbl, perpetual, half/full from (2)
      attributes: half, newton on, kokkos_device
      pair build: halffull/newton/kk/device
      stencil: none
      bin: none
  (2) pair snap, perpetual
      attributes: full, newton on, kokkos_device
      pair build: full/bin/kk/device
      stencil: full/bin/3d
      bin: kk/device
Setting up Verlet run ...
  Unit style    : metal
  Current step  : 0
  Time step     : 0.0005
Per MPI rank memory allocation (min/avg/max) = 18.97 | 18.97 | 18.97 Mbytes
Step Temp E_pair E_mol TotEng Press 
       0          300    -11.85157            0   -11.812803    2734.2581 
      10    295.99873   -11.851053            0   -11.812803    2711.5988 
      20    284.47558   -11.849564            0   -11.812803    2312.9847 
      30    266.38279   -11.847226            0   -11.812803    1864.1243 
      40    242.84181   -11.844184            0   -11.812803    1552.1221 
      50    215.24482   -11.840617            0   -11.812803    1405.1809 
      60    185.20094   -11.836735            0   -11.812803    1409.5615 
      70    154.43876   -11.832759            0   -11.812802     1531.131 
      80    124.69543   -11.828916            0   -11.812802    1730.4578 
      90    97.603227   -11.825415            0   -11.812802    1967.2554 
     100    74.582238    -11.82244            0   -11.812802    2203.6522 
     110    56.747793   -11.820135            0   -11.812802    2407.5034 
     120    44.841093   -11.818597            0   -11.812802    2554.4283 
     130    39.190042   -11.817866            0   -11.812802     2629.794 
     140    39.704298   -11.817933            0   -11.812802    2627.2209 
     150    45.904485   -11.818734            0   -11.812802    2548.7741 
     160    56.980677   -11.820165            0   -11.812802    2403.6944 
     170    71.873681    -11.82209            0   -11.812802    2207.8799 
     180    89.370107   -11.824351            0   -11.812802    1980.1038 
     190    108.20091   -11.826785            0   -11.812803    1741.8163 
     200    127.13183   -11.829231            0   -11.812803    1514.7781 
     210    145.04297   -11.831546            0   -11.812803    1315.1984 
     220      160.993   -11.833607            0   -11.812803     1152.476 
     230    174.26212   -11.835321            0   -11.812803     1029.742 
     240     184.3773   -11.836629            0   -11.812803    950.79842 
     250    191.11655   -11.837499            0   -11.812803    915.34326 
     260    194.49535   -11.837936            0   -11.812803     915.1621 
     270    194.73931   -11.837968            0   -11.812803    944.21491 
     280    192.24179   -11.837645            0   -11.812803    988.49229 
     290     187.5267   -11.837035            0   -11.812803    1045.0961 
     300    181.20348   -11.836218            0   -11.812803     1112.944 
     310    173.91592   -11.835276            0   -11.812803    1188.2637 
     320    166.29233   -11.834291            0   -11.812803    1269.5556 
     330    158.90289   -11.833336            0   -11.812802    1353.2083 
     340    152.22804   -11.832474            0   -11.812802    1435.8972 
     350    146.63693   -11.831751            0   -11.812802    1511.1616 
     360    142.36905     -11.8312            0   -11.812802    1572.2989 
     370    139.53369   -11.830833            0   -11.812802    1617.7335 
     380     138.1186   -11.830651            0   -11.812802    1641.4673 
     390    138.00341   -11.830636            0   -11.812802     1641.048 
     400    138.97978   -11.830762            0   -11.812802    1621.3434 
     410     140.7764   -11.830994            0   -11.812803    1585.0186 
     420    143.08844   -11.831293            0   -11.812803    1535.1811 
     430    145.60573   -11.831618            0   -11.812803    1479.0794 
     440    148.03651   -11.831932            0   -11.812803    1423.8908 
     450    150.12952   -11.832203            0   -11.812803    1373.1516 
     460    151.68742   -11.832404            0   -11.812803    1331.7893 
     470    152.57482   -11.832519            0   -11.812803    1305.3693 
     480    152.72437   -11.832538            0   -11.812803    1290.2612 
     490    152.13277   -11.832462            0   -11.812803    1290.1832 
     500    150.85399   -11.832296            0   -11.812803    1304.5041 
     510    148.99632   -11.832056            0   -11.812803    1331.6165 
     520    146.71368   -11.831761            0   -11.812803    1369.0973 
     530    144.19004   -11.831435            0   -11.812803    1417.1542 
     540    141.62186   -11.831103            0   -11.812803    1477.0798 
     550    139.20303   -11.830791            0   -11.812803    1544.7484 
     560    137.11516   -11.830521            0   -11.812803    1611.0316 
     570    135.52187   -11.830315            0   -11.812802     1671.162 
     580    134.55968   -11.830191            0   -11.812802    1712.3481 
     590    134.32962   -11.830161            0   -11.812802    1733.6671 
     600    134.89472   -11.830234            0   -11.812802    1731.9734 
     610    136.26962   -11.830412            0   -11.812802    1704.3407 
     620    138.42382    -11.83069            0   -11.812802    1652.2003 
     630    141.28313   -11.831059            0   -11.812802    1580.8881 
     640    144.73193   -11.831505            0   -11.812803    1494.9993 
     650    148.61671   -11.832007            0   -11.812803    1399.5673 
     660    152.75153   -11.832542            0   -11.812803     1305.635 
     670    156.92994   -11.833081            0   -11.812803    1218.7117 
     680    160.93468   -11.833599            0   -11.812803    1141.6672 
     690    164.54755   -11.834066            0   -11.812803    1079.4631 
     700    167.56387   -11.834456            0   -11.812803    1035.6423 
     710    169.80044   -11.834745            0   -11.812803    1006.8271 
     720    171.10766   -11.834914            0   -11.812803    1001.2753 
     730    171.37645   -11.834948            0   -11.812803     1017.926 
     740    170.54737   -11.834841            0   -11.812803    1052.3215 
     750     168.6208   -11.834592            0   -11.812803    1103.4039 
     760    165.65475   -11.834209            0   -11.812803    1170.2073 
     770    161.76725   -11.833707            0   -11.812803    1244.6726 
     780    157.13326   -11.833108            0   -11.812803    1329.3616 
     790    151.97828   -11.832442            0   -11.812803    1413.8845 
     800    146.56682   -11.831742            0   -11.812803    1495.3177 
     810    141.18933   -11.831047            0   -11.812803    1576.1612 
     820    136.14156   -11.830395            0   -11.812802    1651.3154 
     830    131.70692   -11.829822            0   -11.812802    1714.7783 
     840    128.13869   -11.829361            0   -11.812802    1756.9365 
     850    125.64189   -11.829038            0   -11.812802    1777.0002 
     860    124.35969   -11.828873            0   -11.812802    1778.2396 
     870    124.36315   -11.828873            0   -11.812802    1757.0128 
     880    125.64616   -11.829039            0   -11.812802    1717.9257 
     890    128.12562   -11.829359            0   -11.812802    1662.8826 
     900    131.64778   -11.829814            0   -11.812802    1594.8823 
     910    135.99502   -11.830376            0   -11.812802    1519.0597 
     920    140.90269    -11.83101            0   -11.812803    1443.5049 
     930    146.07964   -11.831679            0   -11.812803    1371.2797 
     940    151.22357   -11.832344            0   -11.812803    1308.9143 
     950    156.04213   -11.832967            0   -11.812803    1252.5302 
     960    160.27129   -11.833513            0   -11.812803    1201.0095 
     970    163.69375   -11.833956            0   -11.812803    1162.5558 
     980    166.15422   -11.834274            0   -11.812803    1136.1034 
     990    167.56292   -11.834456            0   -11.812803    1120.6429 
    1000    167.90158   -11.834499            0   -11.812803    1113.9245 
    1010    167.21517   -11.834411            0   -11.812803    1126.9318 
    1020    165.60868   -11.834203            0   -11.812803    1153.6477 
    1030    163.24032   -11.833897            0   -11.812803    1194.4587 
    1040    160.30669   -11.833518            0   -11.812803     1242.644 
    1050    157.02597   -11.833094            0   -11.812803     1296.231 
    1060    153.62057   -11.832654            0   -11.812803     1357.883 
    1070    150.30008   -11.832225            0   -11.812803    1422.0054 
    1080    147.24966   -11.831831            0   -11.812803    1478.5957 
    1090    144.61944   -11.831491            0   -11.812802    1529.3444 
    1100    142.52181    -11.83122            0   -11.812802    1569.6333 
    1110    141.02513   -11.831026            0   -11.812802    1595.4271 
    1120    140.15015   -11.830913            0   -11.812802    1609.0201 
    1130    139.87614   -11.830878            0   -11.812802    1608.9938 
    1140    140.14363   -11.830912            0   -11.812803    1595.6272 
    1150    140.86502   -11.831005            0   -11.812803    1570.4325 
    1160    141.92931   -11.831143            0   -11.812803     1536.656 
    1170    143.20997   -11.831309            0   -11.812803    1496.5268 
    1180    144.57828   -11.831485            0   -11.812803    1453.4879 
    1190    145.91319   -11.831658            0   -11.812803    1410.2435 
    1200    147.10795   -11.831812            0   -11.812803     1368.582 
    1210    148.07569   -11.831937            0   -11.812803    1334.5308 
    1220    148.75553   -11.832025            0   -11.812803     1304.823 
    1230    149.11532   -11.832072            0   -11.812803    1286.1292 
    1240    149.15366   -11.832077            0   -11.812803    1280.8975 
    1250    148.90074   -11.832044            0   -11.812803    1289.1506 
    1260    148.41053   -11.831981            0   -11.812803    1305.3335 
    1270    147.75458   -11.831896            0   -11.812803    1331.1315 
    1280    147.01621     -11.8318            0   -11.812803    1364.4095 
    1290     146.2874   -11.831706            0   -11.812803    1401.8041 
    1300       145.66   -11.831625            0   -11.812803    1440.6667 
    1310    145.21913   -11.831568            0   -11.812803    1476.0263 
    1320    145.03387   -11.831544            0   -11.812803    1500.2425 
    1330    145.15672    -11.83156            0   -11.812803    1518.1919 
    1340    145.61999    -11.83162            0   -11.812803    1526.1822 
    1350    146.42762   -11.831724            0   -11.812803    1522.6425 
    1360    147.55917   -11.831871            0   -11.812803    1512.6186 
    1370    148.97011   -11.832053            0   -11.812803    1496.5345 
    1380     150.5937   -11.832263            0   -11.812803    1472.0615 
    1390    152.34558   -11.832489            0   -11.812803    1440.8793 
    1400    154.12578   -11.832719            0   -11.812803     1409.927 
    1410    155.82694   -11.832939            0   -11.812803    1377.0797 
    1420    157.34114   -11.833135            0   -11.812803    1347.3489 
    1430    158.56602   -11.833293            0   -11.812803    1321.1558 
    1440    159.40671   -11.833402            0   -11.812803    1301.0546 
    1450    159.78939   -11.833451            0   -11.812803    1291.7312 
    1460    159.66037   -11.833434            0   -11.812803    1290.9066 
    1470    158.99092   -11.833348            0   -11.812803      1299.32 
    1480    157.78434   -11.833192            0   -11.812803    1320.2741 
    1490    156.07628   -11.832971            0   -11.812803    1351.4258 
    1500    153.92891   -11.832694            0   -11.812803    1388.7979 
    1510    151.42652    -11.83237            0   -11.812803    1431.1206 
    1520    148.68028   -11.832015            0   -11.812803    1476.7983 
    1530    145.82411   -11.831646            0   -11.812803    1517.1653 
    1540    143.00522   -11.831282            0   -11.812803    1550.7987 
    1550    140.37233   -11.830942            0   -11.812803    1575.6301 
    1560    138.06817   -11.830644            0   -11.812803    1589.1634 
    1570    136.22169   -11.830405            0   -11.812802    1592.4905 
    1580    134.93872    -11.83024            0   -11.812802    1584.1602 
    1590    134.29641   -11.830157            0   -11.812802    1563.9588 
    1600    134.33538   -11.830162            0   -11.812802    1529.9813 
    1610     135.0567   -11.830255            0   -11.812802    1486.4774 
    1620    136.41997   -11.830431            0   -11.812802    1438.1761 
    1630    138.35117   -11.830681            0   -11.812803    1389.2996 
    1640    140.74364    -11.83099            0   -11.812803      1338.23 
    1650    143.46489   -11.831341            0   -11.812803    1291.1616 
    1660    146.36707   -11.831716            0   -11.812803    1253.5062 
    1670    149.29599   -11.832095            0   -11.812803    1227.7971 
    1680    152.09776   -11.832457            0   -11.812803    1211.8987 
    1690     154.6277   -11.832784            0   -11.812803    1210.0191 
    1700    156.76257    -11.83306            0   -11.812803    1222.7149 
    1710    158.40848   -11.833273            0   -11.812803    1248.1923 
    1720    159.50326   -11.833414            0   -11.812803    1283.6293 
    1730    160.01957   -11.833481            0   -11.812803     1323.493 
    1740    159.96769   -11.833474            0   -11.812803    1369.5598 
    1750    159.39103     -11.8334            0   -11.812803    1415.6452 
    1760     158.3616   -11.833266            0   -11.812803    1460.8849 
    1770    156.97485   -11.833087            0   -11.812803    1510.2483 
    1780    155.34064   -11.832876            0   -11.812803     1557.115 
    1790    153.57717   -11.832648            0   -11.812803    1602.9818 
    1800    151.80007   -11.832419            0   -11.812803    1643.9027 
    1810     150.1149   -11.832201            0   -11.812803    1675.4989 
    1820    148.61233   -11.832007            0   -11.812803    1696.7197 
    1830    147.36651   -11.831846            0   -11.812803    1702.4242 
    1840    146.42717   -11.831724            0   -11.812803    1695.8254 
    1850    145.82122   -11.831646            0   -11.812803    1680.5624 
    1860    145.55349   -11.831611            0   -11.812803    1652.6971 
    1870    145.60714   -11.831618            0   -11.812803    1616.7381 
    1880    145.94698   -11.831662            0   -11.812803    1575.6057 
    1890     146.5255   -11.831737            0   -11.812803     1529.772 
    1900    147.28434   -11.831835            0   -11.812803    1481.9351 
    1910    148.16086   -11.831948            0   -11.812803    1439.6293 
    1920    149.09076   -11.832068            0   -11.812803    1400.0487 
    1930    150.00937   -11.832187            0   -11.812803    1365.4543 
    1940    150.86086   -11.832297            0   -11.812803    1341.4742 
    1950    151.59843   -11.832393            0   -11.812803    1328.3357 
    1960    152.18626   -11.832468            0   -11.812803    1325.8798 
    1970      152.601   -11.832522            0   -11.812803    1330.4333 
    1980    152.83239   -11.832552            0   -11.812803    1344.7533 
    1990    152.88294   -11.832559            0   -11.812803    1364.9928 
    2000      152.761   -11.832543            0   -11.812803    1392.5123 
    2010    152.48779   -11.832507            0   -11.812803    1428.4336 
    2020    152.08954   -11.832456            0   -11.812803     1468.144 
    2030    151.59556   -11.832392            0   -11.812803    1505.9823 
    2040     151.0368    -11.83232            0   -11.812803    1538.9129 
    2050     150.4418   -11.832243            0   -11.812803    1563.2731 
    2060    149.83601   -11.832165            0   -11.812803    1579.7592 
    2070    149.24117   -11.832088            0   -11.812803    1585.1841 
    2080    148.67791   -11.832015            0   -11.812803    1581.6823 
    2090    148.16162   -11.831948            0   -11.812803    1566.0503 
    2100     147.7058   -11.831889            0   -11.812803    1534.0943 
    2110    147.32163    -11.83184            0   -11.812803    1490.1943 
    2120    147.01573     -11.8318            0   -11.812803    1441.6267 
    2130    146.79083   -11.831771            0   -11.812803    1388.6275 
    2140    146.64472   -11.831752            0   -11.812803    1336.6979 
    2150     146.5717   -11.831743            0   -11.812803    1292.1387 
    2160    146.56024   -11.831741            0   -11.812803    1257.8327 
    2170    146.59551   -11.831746            0   -11.812803     1235.373 
    2180    146.66055   -11.831754            0   -11.812803    1221.3784 
    2190    146.73973   -11.831765            0   -11.812803    1219.7916 
    2200    146.81516   -11.831774            0   -11.812803    1230.4224 
    2210    146.86899   -11.831781            0   -11.812803    1255.1687 
    2220    146.88492   -11.831783            0   -11.812803    1284.0986 
    2230    146.85249   -11.831779            0   -11.812803    1319.3956 
    2240    146.76603   -11.831768            0   -11.812803     1360.443 
    2250    146.62852    -11.83175            0   -11.812803    1400.6406 
    2260    146.44758   -11.831727            0   -11.812803    1437.5336 
    2270    146.23637     -11.8317            0   -11.812803     1469.664 
    2280    146.01563   -11.831671            0   -11.812803    1490.7384 
    2290    145.81057   -11.831645            0   -11.812803    1496.3536 
    2300    145.64674   -11.831623            0   -11.812803    1493.6011 
    2310     145.5492   -11.831611            0   -11.812803    1481.6756 
    2320    145.54128    -11.83161            0   -11.812803    1455.6901 
    2330    145.64574   -11.831623            0   -11.812803    1423.8113 
    2340    145.88334   -11.831654            0   -11.812803    1389.5514 
    2350    146.27037   -11.831704            0   -11.812803    1352.1613 
    2360    146.81407   -11.831774            0   -11.812803    1315.1314 
    2370    147.51441   -11.831865            0   -11.812803    1282.4708 
    2380    148.36419   -11.831975            0   -11.812803    1259.8831 
    2390    149.34824   -11.832102            0   -11.812803    1247.5602 
    2400    150.43895   -11.832243            0   -11.812803    1246.7399 
    2410    151.59493   -11.832392            0   -11.812803    1254.1339 
    2420    152.76614   -11.832543            0   -11.812803    1268.1325 
    2430    153.89437   -11.832689            0   -11.812803    1293.9634 
    2440    154.91736   -11.832821            0   -11.812803    1327.7195 
    2450    155.76814   -11.832931            0   -11.812803    1367.2918 
    2460    156.38164   -11.833011            0   -11.812803    1409.6781 
    2470    156.69742   -11.833051            0   -11.812803    1451.4912 
    2480    156.66525   -11.833047            0   -11.812803    1489.9575 
    2490    156.24901   -11.832994            0   -11.812803    1532.6622 
    2500    155.43267   -11.832888            0   -11.812803    1571.1768 
    2510    154.22358   -11.832732            0   -11.812803    1600.0206 
    2520    152.65267   -11.832529            0   -11.812803    1620.3014 
    2530     150.7766   -11.832286            0   -11.812803    1632.6691 
    2540     148.6747   -11.832015            0   -11.812803    1639.9419 
    2550    146.44565   -11.831727            0   -11.812803    1633.0564 
    2560    144.20681   -11.831437            0   -11.812803     1620.504 
    2570    142.08672   -11.831163            0   -11.812803    1601.8624 
    2580    140.21275   -11.830921            0   -11.812803    1579.0991 
    2590    138.70451   -11.830726            0   -11.812803    1548.8372 
    2600     137.6679   -11.830592            0   -11.812802    1512.5888 
    2610    137.18711    -11.83053            0   -11.812802    1477.9208 
    2620    137.31969   -11.830547            0   -11.812802    1444.4766 
    2630     138.0879   -11.830647            0   -11.812802    1409.5411 
    2640     139.4761   -11.830826            0   -11.812802    1376.4298 
    2650     141.4303   -11.831079            0   -11.812803    1353.1167 
    2660    143.86022   -11.831393            0   -11.812803    1335.3983 
    2670     146.6437   -11.831752            0   -11.812803    1319.8346 
    2680    149.63617   -11.832139            0   -11.812803     1309.781 
    2690    152.67759   -11.832532            0   -11.812803    1308.2863 
    2700    155.60003    -11.83291            0   -11.812803    1312.4228 
    2710    158.24181   -11.833251            0   -11.812803    1320.7266 
    2720    160.45747   -11.833537            0   -11.812803    1332.8755 
    2730    162.12512   -11.833753            0   -11.812803    1346.9016 
    2740    163.15809   -11.833886            0   -11.812803    1362.2679 
    2750    163.50701   -11.833931            0   -11.812803    1382.4257 
    2760    163.16344   -11.833887            0   -11.812803    1402.9877 
    2770    162.15869   -11.833757            0   -11.812803    1419.7184 
    2780    160.56335   -11.833551            0   -11.812803    1433.2318 
    2790    158.48159   -11.833282            0   -11.812803    1445.1486 
    2800    156.04297   -11.832967            0   -11.812803    1454.7876 
    2810    153.39253   -11.832624            0   -11.812803    1463.3725 
    2820     150.6838   -11.832274            0   -11.812803    1468.8569 
    2830    148.06738   -11.831936            0   -11.812803    1471.2728 
    2840    145.68343   -11.831628            0   -11.812803    1468.9753 
    2850    143.64895   -11.831365            0   -11.812803    1461.9664 
    2860    142.05208   -11.831159            0   -11.812803    1453.3501 
    2870    140.95055   -11.831017            0   -11.812803    1442.7758 
    2880    140.36297   -11.830941            0   -11.812803    1431.4208 
    2890     140.2721   -11.830929            0   -11.812803    1413.2722 
    2900    140.63034   -11.830975            0   -11.812803    1395.6459 
    2910    141.35985   -11.831069            0   -11.812803    1377.2955 
    2920    142.35948   -11.831199            0   -11.812803    1359.4858 
    2930    143.51638   -11.831348            0   -11.812803    1340.5977 
    2940    144.71612   -11.831503            0   -11.812803    1322.6487 
    2950    145.85263    -11.83165            0   -11.812803    1308.4036 
    2960     146.8321   -11.831777            0   -11.812803     1302.552 
    2970    147.58569   -11.831874            0   -11.812803    1303.9218 
    2980    148.07377   -11.831937            0   -11.812803    1307.2623 
    2990    148.28577   -11.831964            0   -11.812803    1316.2664 
    3000    148.24114   -11.831959            0   -11.812803    1331.4095 
    3010    147.98918   -11.831926            0   -11.812803    1343.0234 
    3020    147.60306   -11.831876            0   -11.812803    1355.4703 
    3030    147.17188    -11.83182            0   -11.812803    1367.5889 
    3040    146.79162   -11.831771            0   -11.812803    1378.3298 
    3050    146.55387   -11.831741            0   -11.812803    1390.8363 
    3060    146.53868   -11.831739            0   -11.812803    1397.8403 
    3070    146.80749   -11.831773            0   -11.812803    1395.8939 
    3080    147.39378   -11.831849            0   -11.812803     1385.366 
    3090    148.29917   -11.831966            0   -11.812803    1370.1245 
    3100    149.49476   -11.832121            0   -11.812803    1350.2705 
    3110    150.91808   -11.832305            0   -11.812803    1328.7773 
    3120    152.47677   -11.832506            0   -11.812803    1304.8036 
    3130    154.05903    -11.83271            0   -11.812803    1281.3068 
    3140    155.54123   -11.832902            0   -11.812803    1258.3064 
    3150    156.79985   -11.833065            0   -11.812803    1242.3028 
    3160    157.71847   -11.833183            0   -11.812803    1232.9875 
    3170    158.19827   -11.833245            0   -11.812803    1231.1159 
    3180    158.16731   -11.833241            0   -11.812803    1238.1862 
    3190     157.5877   -11.833167            0   -11.812803    1251.3954 
    3200    156.45997   -11.833021            0   -11.812803     1269.189 
    3210    154.83074    -11.83281            0   -11.812803    1295.7325 
    3220    152.78476   -11.832546            0   -11.812803     1328.623 
    3230    150.43924   -11.832243            0   -11.812803    1364.8015 
    3240    147.93551   -11.831919            0   -11.812803    1403.3406 
    3250     145.4271   -11.831595            0   -11.812803    1445.7099 
    3260    143.06729    -11.83129            0   -11.812803     1490.066 
    3270    141.00259   -11.831023            0   -11.812803    1531.3932 
    3280    139.36185   -11.830811            0   -11.812802    1567.4515 
    3290    138.24783   -11.830667            0   -11.812802    1596.8134 
    3300    137.72611     -11.8306            0   -11.812802    1618.8149 
    3310      137.822   -11.830612            0   -11.812802    1628.4278 
    3320    138.51726   -11.830702            0   -11.812802    1623.9174 
    3330    139.75412   -11.830862            0   -11.812803    1605.1343 
    3340    141.44055    -11.83108            0   -11.812803     1569.697 
    3350    143.45676    -11.83134            0   -11.812803    1524.5439 
    3360    145.66555   -11.831626            0   -11.812803    1473.8718 
    3370    147.92132   -11.831917            0   -11.812803    1418.7163 
    3380    150.07536   -11.832196            0   -11.812803    1363.8245 
    3390    151.99057   -11.832443            0   -11.812803    1313.3655 
    3400    153.55159   -11.832645            0   -11.812803    1266.7574 
    3410    154.67297    -11.83279            0   -11.812803     1226.184 
    3420    155.30284   -11.832871            0   -11.812803    1191.2381 
    3430    155.42719   -11.832887            0   -11.812803    1165.2742 
    3440    155.06908   -11.832841            0   -11.812803    1148.1973 
    3450    154.28632    -11.83274            0   -11.812803    1141.7896 
    3460    153.16557   -11.832595            0   -11.812803    1148.1682 
    3470    151.81621   -11.832421            0   -11.812803    1167.9268 
    3480    150.35932   -11.832232            0   -11.812803    1197.5912 
    3490    148.91753   -11.832046            0   -11.812803    1234.8422 
    3500    147.60807   -11.831877            0   -11.812803    1282.0701 
    3510    146.53342   -11.831738            0   -11.812803    1333.2379 
    3520     145.7779    -11.83164            0   -11.812803    1382.9401 
    3530    145.39868   -11.831591            0   -11.812803    1431.4357 
    3540    145.41824   -11.831594            0   -11.812803    1472.5175 
    3550    145.82332   -11.831646            0   -11.812803    1501.2237 
    3560    146.56835   -11.831742            0   -11.812803     1520.987 
    3570     147.5792   -11.831873            0   -11.812803    1534.6341 
    3580    148.75826   -11.832025            0   -11.812803    1541.9639 
    3590    149.99109   -11.832185            0   -11.812803    1543.6314 
    3600    151.15761   -11.832336            0   -11.812803     1540.321 
    3610    152.14366   -11.832463            0   -11.812803    1530.6424 
    3620    152.85399   -11.832555            0   -11.812803    1517.1713 
    3630    153.21382   -11.832601            0   -11.812803    1497.9273 
    3640    153.17875   -11.832597            0   -11.812803    1478.2292 
    3650    152.73797    -11.83254            0   -11.812803    1463.1081 
    3660    151.91624   -11.832434            0   -11.812803    1451.0254 
    3670    150.77483   -11.832286            0   -11.812803    1440.8739 
    3680    149.40185   -11.832109            0   -11.812803    1426.6682 
    3690    147.90725   -11.831916            0   -11.812803    1410.1281 
    3700    146.41676   -11.831723            0   -11.812803    1392.5144 
    3710    145.06089   -11.831548            0   -11.812803    1376.5674 
    3720    143.96257   -11.831406            0   -11.812803    1362.0082 
    3730    143.22985   -11.831311            0   -11.812803    1350.5127 
    3740    142.94544   -11.831274            0   -11.812803    1341.0598 
    3750    143.15615   -11.831302            0   -11.812803    1329.8214 
    3760    143.86888   -11.831394            0   -11.812803    1319.3574 
    3770    145.05093   -11.831546            0   -11.812803    1313.5912 
    3780    146.63286   -11.831751            0   -11.812803     1310.324 
    3790    148.51123   -11.831994            0   -11.812803    1309.4723 
    3800    150.55805   -11.832258            0   -11.812803    1311.5004 
    3810    152.63041   -11.832526            0   -11.812803    1318.3312 
    3820    154.58039   -11.832778            0   -11.812803    1328.3647 
    3830    156.26289   -11.832995            0   -11.812803    1338.7677 
    3840    157.55048   -11.833162            0   -11.812803     1351.662 
    3850    158.33934   -11.833264            0   -11.812803     1366.222 
    3860    158.55985   -11.833292            0   -11.812803    1381.3042 
    3870    158.17759   -11.833243            0   -11.812803    1399.7389 
    3880    157.19771   -11.833116            0   -11.812803    1416.6254 
    3890    155.66399   -11.832918            0   -11.812803    1427.0631 
    3900    153.65499   -11.832658            0   -11.812803    1428.7152 
    3910    151.28422   -11.832352            0   -11.812803    1423.7087 
    3920    148.69158   -11.832017            0   -11.812803    1413.9574 
    3930    146.02766   -11.831673            0   -11.812803    1403.4308 
    3940    143.44575   -11.831339            0   -11.812803    1393.9054 
    3950    141.09011   -11.831035            0   -11.812803    1386.9579 
    3960    139.08648   -11.830776            0   -11.812803    1382.8484 
    3970    137.53347   -11.830575            0   -11.812803    1376.9072 
    3980    136.50174   -11.830442            0   -11.812802    1366.0263 
    3990    136.02999   -11.830381            0   -11.812802      1354.24 
    4000    136.12488   -11.830393            0   -11.812802    1342.9812 
    4010    136.76375   -11.830475            0   -11.812803    1331.5559 
    4020    137.89789   -11.830622            0   -11.812803    1323.9953 
    4030    139.45606   -11.830823            0   -11.812803    1317.0959 
    4040    141.35067   -11.831068            0   -11.812803    1312.7802 
    4050    143.48353   -11.831344            0   -11.812803    1307.7957 
    4060     145.7524   -11.831637            0   -11.812803    1309.0964 
    4070    148.05962   -11.831935            0   -11.812803    1314.1376 
    4080    150.31464   -11.832227            0   -11.812803    1322.6153 
    4090    152.43568   -11.832501            0   -11.812803    1335.0171 
    4100    154.35101   -11.832748            0   -11.812803    1348.1243 
    4110    156.00822   -11.832962            0   -11.812803    1355.0723 
    4120    157.36692   -11.833138            0   -11.812803    1366.3842 
    4130    158.40101   -11.833272            0   -11.812803    1376.4045 
    4140    159.09771   -11.833362            0   -11.812803    1386.1182 
    4150    159.45707   -11.833408            0   -11.812803    1393.6925 
    4160    159.48563   -11.833412            0   -11.812803    1400.2415 
    4170    159.19121   -11.833374            0   -11.812803     1397.871 
    4180    158.58801   -11.833296            0   -11.812803    1393.1492 
    4190    157.69567    -11.83318            0   -11.812803    1392.0833 
    4200    156.54082   -11.833031            0   -11.812803    1391.8726 
    4210    155.15565   -11.832852            0   -11.812803    1391.8817 
    4220       153.58   -11.832649            0   -11.812803    1390.0673 
    4230    151.86125   -11.832426            0   -11.812803    1390.3676 
    4240    150.05369   -11.832193            0   -11.812803    1396.5448 
    4250    148.21799   -11.831956            0   -11.812803     1406.483 
    4260    146.42329   -11.831724            0   -11.812803    1414.6152 
    4270    144.74253   -11.831507            0   -11.812803    1421.9361 
    4280    143.24935   -11.831314            0   -11.812803    1428.0903 
    4290    142.01851   -11.831155            0   -11.812803    1436.1617 
    4300    141.11283   -11.831037            0   -11.812803     1448.124 
    4310    140.58276   -11.830969            0   -11.812803    1458.2961 
    4320    140.46557   -11.830954            0   -11.812803    1468.4932 
    4330    140.77915   -11.830994            0   -11.812803    1478.5567 
    4340    141.51979    -11.83109            0   -11.812803     1488.753 
    4350    142.66277   -11.831238            0   -11.812803    1495.6793 
    4360    144.16088   -11.831431            0   -11.812803    1491.5927 
    4370    145.94833   -11.831662            0   -11.812803    1482.6524 
    4380    147.94095    -11.83192            0   -11.812803    1472.9534 
    4390    150.03996   -11.832191            0   -11.812803    1460.6129 
    4400    152.13908   -11.832462            0   -11.812803    1446.4383 
    4410    154.13177    -11.83272            0   -11.812803    1428.4511 
    4420    155.92046   -11.832951            0   -11.812803    1405.8698 
    4430    157.41592   -11.833144            0   -11.812803    1375.0771 
    4440    158.54172    -11.83329            0   -11.812803    1339.8787 
    4450    159.24268    -11.83338            0   -11.812803    1307.3449 
    4460      159.485   -11.833412            0   -11.812803    1281.2211 
    4470    159.25668   -11.833382            0   -11.812803    1263.2967 
    4480    158.57121   -11.833294            0   -11.812803    1251.1027 
    4490    157.46857   -11.833151            0   -11.812803    1243.2633 
    4500    156.00825   -11.832962            0   -11.812803    1243.9976 
    4510    154.26143   -11.832737            0   -11.812803    1255.8458 
    4520    152.31013   -11.832484            0   -11.812803    1273.9076 
    4530    150.24172   -11.832217            0   -11.812803    1298.7386 
    4540    148.14419   -11.831946            0   -11.812803    1332.2036 
    4550    146.10382   -11.831682            0   -11.812803    1372.3401 
    4560    144.20224   -11.831437            0   -11.812803    1415.5364 
    4570    142.51026   -11.831218            0   -11.812803     1456.377 
    4580    141.08696   -11.831034            0   -11.812803    1492.4777 
    4590    139.97863   -11.830891            0   -11.812803    1519.4819 
    4600     139.2168   -11.830792            0   -11.812803    1540.5068 
    4610    138.81717   -11.830741            0   -11.812803    1556.2116 
    4620    138.78321   -11.830736            0   -11.812803    1563.0356 
    4630    139.10904   -11.830779            0   -11.812803    1557.6158 
    4640    139.77634   -11.830865            0   -11.812803    1543.9405 
    4650    140.75748   -11.830992            0   -11.812803    1524.5999 
    4660    142.01547   -11.831154            0   -11.812803    1500.4691 
    4670    143.50546   -11.831347            0   -11.812803    1473.5891 
    4680    145.17404   -11.831562            0   -11.812803    1446.8722 
    4690    146.96452   -11.831794            0   -11.812803    1423.0277 
    4700    148.81826   -11.832033            0   -11.812803      1402.66 
    4710    150.67077   -11.832273            0   -11.812803    1383.4149 
    4720    152.45516   -11.832503            0   -11.812803    1366.2504 
    4730    154.10482   -11.832716            0   -11.812803    1353.0591 
    4740    155.55744   -11.832904            0   -11.812803    1341.4425 
    4750    156.75791   -11.833059            0   -11.812803    1331.4325 
    4760    157.66127   -11.833176            0   -11.812803    1322.3603 
    4770    158.23521    -11.83325            0   -11.812803    1315.2742 
    4780    158.45759   -11.833279            0   -11.812803    1313.2223 
    4790     158.3242   -11.833262            0   -11.812803    1315.3365 
    4800    157.85114   -11.833201            0   -11.812803    1319.5826 
    4810    157.07146     -11.8331            0   -11.812803    1327.4713 
    4820    156.03287   -11.832966            0   -11.812803    1331.9983 
    4830    154.79571   -11.832806            0   -11.812803    1341.6687 
    4840    153.42581   -11.832629            0   -11.812803    1352.0259 
    4850    151.99259   -11.832443            0   -11.812803    1359.8277 
    4860    150.56165   -11.832259            0   -11.812803    1367.0847 
    4870    149.19249   -11.832082            0   -11.812803    1370.6935 
    4880    147.93406   -11.831919            0   -11.812803    1375.0176 
    4890    146.82362   -11.831775            0   -11.812803    1377.5809 
    4900    145.88668   -11.831654            0   -11.812803    1377.8131 
    4910    145.13449   -11.831557            0   -11.812803    1375.2717 
    4920    144.56596   -11.831484            0   -11.812803    1368.6418 
    4930    144.16533   -11.831432            0   -11.812803    1361.5541 
    4940    143.90934   -11.831399            0   -11.812803    1352.7204 
    4950    143.76808   -11.831381            0   -11.812803    1345.6407 
    4960    143.71088   -11.831373            0   -11.812803    1341.2151 
    4970    143.70772   -11.831373            0   -11.812803    1338.7115 
    4980    143.73045   -11.831376            0   -11.812803    1338.8794 
    4990    143.75835   -11.831379            0   -11.812803    1339.5426 
    5000    143.77709   -11.831382            0   -11.812803     1344.215 
    5010    143.77824   -11.831382            0   -11.812803    1351.8877 
    5020    143.76467    -11.83138            0   -11.812803    1358.9123 
    5030    143.74734   -11.831378            0   -11.812803     1365.788 
    5040      143.745   -11.831378            0   -11.812803    1374.4252 
    5050     143.7839   -11.831383            0   -11.812803    1381.4351 
    5060    143.89345   -11.831397            0   -11.812803    1389.2234 
    5070    144.10235   -11.831424            0   -11.812803    1395.6905 
    5080    144.43465   -11.831467            0   -11.812803    1400.3194 
    5090    144.90508   -11.831528            0   -11.812803    1399.6232 
    5100    145.51995   -11.831607            0   -11.812803    1394.2869 
    5110    146.27855   -11.831705            0   -11.812803    1389.7139 
    5120    147.16843    -11.83182            0   -11.812803    1386.4806 
    5130    148.16681   -11.831949            0   -11.812803    1384.1494 
    5140    149.24135   -11.832088            0   -11.812803    1386.0504 
    5150    150.35135   -11.832231            0   -11.812803    1392.6732 
    5160    151.45179   -11.832374            0   -11.812803    1400.1823 
    5170    152.50037   -11.832509            0   -11.812803    1409.0021 
    5180    153.45707   -11.832633            0   -11.812803    1411.5235 
    5190     154.2892    -11.83274            0   -11.812803    1414.8019 
    5200    154.97558   -11.832829            0   -11.812803    1414.2232 
    5210    155.50451   -11.832897            0   -11.812803    1410.4353 
    5220    155.87336   -11.832945            0   -11.812803    1403.2883 
    5230     156.0873   -11.832973            0   -11.812803      1398.17 
    5240    156.15581   -11.832981            0   -11.812803    1392.9618 
    5250    156.09122   -11.832973            0   -11.812803    1381.7064 
    5260    155.90805   -11.832949            0   -11.812803    1371.4014 
    5270    155.61705   -11.832912            0   -11.812803    1360.6517 
    5280     155.2259   -11.832861            0   -11.812803     1346.637 
    5290     154.7395   -11.832798            0   -11.812803     1332.205 
    5300    154.15436   -11.832723            0   -11.812803    1325.0872 
    5310    153.46321   -11.832633            0   -11.812803    1321.7126 
    5320     152.6594    -11.83253            0   -11.812803    1324.8674 
    5330    151.73815   -11.832411            0   -11.812803    1334.5486 
    5340    150.69778   -11.832276            0   -11.812803    1351.1773 
    5350    149.54744   -11.832127            0   -11.812803    1375.4234 
    5360    148.30782   -11.831967            0   -11.812803    1406.7237 
    5370    147.01069     -11.8318            0   -11.812803    1444.6401 
    5380     145.7002    -11.83163            0   -11.812803     1481.803 
    5390    144.43094   -11.831466            0   -11.812803    1514.3675 
    5400    143.26443   -11.831316            0   -11.812803    1543.1811 
    5410    142.26844   -11.831187            0   -11.812803    1571.6292 
    5420    141.50831   -11.831089            0   -11.812803    1589.5506 
    5430    141.04211   -11.831028            0   -11.812803    1597.6683 
    5440    140.91921   -11.831012            0   -11.812803    1596.9004 
    5450    141.16936   -11.831045            0   -11.812803    1588.1159 
    5460    141.79809   -11.831126            0   -11.812803    1572.4358 
    5470    142.78435   -11.831254            0   -11.812803    1546.2891 
    5480    144.08225   -11.831421            0   -11.812803    1514.8467 
    5490    145.62282    -11.83162            0   -11.812803    1478.3055 
    5500    147.31858   -11.831839            0   -11.812803    1437.7122 
    5510    149.06461   -11.832065            0   -11.812803    1396.7704 
    5520    150.74812   -11.832283            0   -11.812803    1358.3063 
    5530    152.25942   -11.832478            0   -11.812803    1324.2393 
    5540    153.49532   -11.832638            0   -11.812803    1295.0231 
    5550       154.37   -11.832751            0   -11.812803    1272.9902 
    5560    154.82227   -11.832809            0   -11.812803    1254.2578 
    5570    154.81946   -11.832809            0   -11.812803    1247.6554 
    5580    154.36284    -11.83275            0   -11.812803    1253.9451 
    5590     153.4875   -11.832637            0   -11.812803    1270.2267 
    5600    152.25452   -11.832477            0   -11.812803    1291.8837 
    5610    150.75367   -11.832283            0   -11.812803    1318.0046 
    5620    149.09841   -11.832069            0   -11.812803    1348.7302 
    5630    147.41153   -11.831851            0   -11.812803    1377.6915 
    5640    145.81436   -11.831645            0   -11.812803    1403.9745 
    5650    144.42236   -11.831465            0   -11.812803    1429.6178 
    5660    143.33291   -11.831324            0   -11.812803    1448.5938 
    5670    142.61874   -11.831232            0   -11.812803    1457.6164 
    5680    142.32069   -11.831194            0   -11.812803     1457.758 
    5690    142.44249   -11.831209            0   -11.812803    1453.2637 
    5700    142.95325   -11.831275            0   -11.812803    1441.2359 
    5710    143.79152   -11.831384            0   -11.812803    1421.5922 
    5720     144.8744   -11.831524            0   -11.812803    1399.0801 
    5730    146.10093   -11.831682            0   -11.812803    1375.8245 
    5740    147.36194   -11.831845            0   -11.812803    1353.5076 
    5750    148.55284   -11.831999            0   -11.812803    1332.2733 
    5760    149.58096   -11.832132            0   -11.812803     1311.708 
    5770    150.37193   -11.832234            0   -11.812803    1294.9935 
    5780    150.87778   -11.832299            0   -11.812803     1283.094 
    5790    151.07754   -11.832325            0   -11.812803    1277.9153 
    5800     150.9797   -11.832313            0   -11.812803    1280.6169 
    5810    150.61999   -11.832266            0   -11.812803     1292.382 
    5820     150.0579   -11.832193            0   -11.812803    1312.5374 
    5830    149.37457   -11.832105            0   -11.812803    1336.0019 
    5840    148.66187   -11.832013            0   -11.812803    1360.6349 
    5850    148.01597    -11.83193            0   -11.812803    1390.4048 
    5860    147.52185   -11.831866            0   -11.812803    1420.5384 
    5870    147.24609    -11.83183            0   -11.812803    1447.7095 
    5880    147.23293   -11.831828            0   -11.812803    1470.8858 
    5890    147.50127   -11.831863            0   -11.812803    1489.9721 
    5900    148.03932   -11.831933            0   -11.812803    1499.3645 
    5910    148.80463   -11.832031            0   -11.812803    1497.7494 
    5920     149.7304   -11.832151            0   -11.812803    1488.9832 
    5930    150.73104    -11.83228            0   -11.812803    1476.0768 
    5940    151.71013   -11.832407            0   -11.812803    1457.5875 
    5950    152.57188   -11.832518            0   -11.812803    1431.3458 
    5960    153.23216   -11.832604            0   -11.812803    1398.9196 
    5970    153.62425   -11.832654            0   -11.812803    1367.0556 
    5980    153.70252   -11.832664            0   -11.812803    1335.4867 
    5990    153.45044   -11.832632            0   -11.812803    1307.3032 
    6000    152.88416   -11.832559            0   -11.812803    1282.4554 
    6010    152.05099   -11.832451            0   -11.812803    1267.9438 
    6020    151.02255   -11.832318            0   -11.812803    1266.2888 
    6030    149.89087   -11.832172            0   -11.812803    1273.1455 
    6040    148.76041   -11.832026            0   -11.812803     1283.268 
    6050     147.7385   -11.831894            0   -11.812803    1303.2168 
    6060    146.92167   -11.831788            0   -11.812803    1332.0742 
    6070    146.38776   -11.831719            0   -11.812803    1364.7554 
    6080    146.18687   -11.831693            0   -11.812803    1407.2223 
    6090    146.34014   -11.831713            0   -11.812803    1448.5778 
    6100    146.83351   -11.831777            0   -11.812803    1490.0287 
    6110    147.61894   -11.831878            0   -11.812803    1527.0477 
    6120    148.62665   -11.832008            0   -11.812803    1556.7737 
    6130    149.76688   -11.832156            0   -11.812803    1575.1129 
    6140    150.93338   -11.832307            0   -11.812803    1585.7943 
    6150    152.01546   -11.832446            0   -11.812803    1587.7206 
    6160     152.9127   -11.832562            0   -11.812803    1582.0858 
    6170    153.54164   -11.832644            0   -11.812803    1569.0031 
    6180    153.84197   -11.832682            0   -11.812803    1553.4769 
    6190    153.78485   -11.832675            0   -11.812803     1534.442 
    6200    153.37748   -11.832622            0   -11.812803    1504.7288 
    6210    152.66108    -11.83253            0   -11.812803    1475.0125 
    6220     151.7023   -11.832406            0   -11.812803    1443.8157 
    6230    150.59002   -11.832262            0   -11.812803    1418.7582 
    6240    149.42462   -11.832112            0   -11.812803    1394.7723 
    6250    148.30966   -11.831968            0   -11.812803      1372.29 
    6260    147.34495   -11.831843            0   -11.812803    1351.6654 
    6270    146.61415   -11.831748            0   -11.812803    1335.4119 
    6280    146.18091   -11.831692            0   -11.812803    1327.4401 
    6290    146.07719   -11.831679            0   -11.812803    1327.0939 
    6300    146.30419   -11.831708            0   -11.812803    1335.8775 
    6310    146.82944   -11.831776            0   -11.812803    1350.2787 
    6320    147.58876   -11.831874            0   -11.812803    1365.9994 
    6330     148.4978   -11.831992            0   -11.812803    1383.1338 
    6340    149.46226   -11.832116            0   -11.812803    1396.3699 
    6350    150.38442   -11.832236            0   -11.812803    1404.9976 
    6360    151.16822   -11.832337            0   -11.812803    1412.1441 
    6370    151.73213    -11.83241            0   -11.812803    1419.8295 
    6380    152.01591   -11.832446            0   -11.812803    1427.0656 
    6390    151.98917   -11.832443            0   -11.812803    1434.9682 
    6400    151.64739   -11.832399            0   -11.812803    1444.1412 
    6410    151.01659   -11.832317            0   -11.812803    1452.3552 
    6420    150.15056   -11.832205            0   -11.812803    1457.9885 
    6430     149.1249   -11.832073            0   -11.812803     1461.878 
    6440    148.03208   -11.831932            0   -11.812803    1459.4296 
    6450    146.97151   -11.831795            0   -11.812803     1452.337 
    6460    146.04139   -11.831674            0   -11.812803     1445.096 
    6470    145.32699   -11.831582            0   -11.812803    1434.4809 
    6480    144.89168   -11.831526            0   -11.812803    1421.7732 
    6490    144.77542   -11.831511            0   -11.812803    1406.1156 
    6500    144.98879   -11.831538            0   -11.812803    1392.5807 
    6510    145.51167   -11.831606            0   -11.812803      1379.05 
    6520    146.29162   -11.831707            0   -11.812803    1366.0167 
    6530    147.25165   -11.831831            0   -11.812803    1357.5518 
    6540    148.30132   -11.831966            0   -11.812803    1357.0385 
    6550    149.34179   -11.832101            0   -11.812803     1360.944 
    6560    150.27338   -11.832221            0   -11.812803    1364.6483 
    6570    151.00498   -11.832316            0   -11.812803    1367.1074 
    6580    151.46255   -11.832375            0   -11.812803    1371.8316 
    6590    151.60083   -11.832393            0   -11.812803    1380.2091 
    6600    151.40644   -11.832368            0   -11.812803    1388.8665 
    6610    150.89725   -11.832302            0   -11.812803     1393.033 
    6620     150.1243   -11.832202            0   -11.812803    1391.1979 
    6630    149.16464   -11.832078            0   -11.812803    1387.3164 
    6640     148.1149   -11.831942            0   -11.812803    1378.8051 
    6650    147.08483   -11.831809            0   -11.812803    1369.0965 
    6660    146.18165   -11.831693            0   -11.812803    1362.5005 
    6670    145.50378   -11.831605            0   -11.812803    1359.0112 
    6680    145.13124   -11.831557            0   -11.812803    1354.4982 
    6690    145.11862   -11.831555            0   -11.812803    1349.9043 
    6700    145.48497   -11.831602            0   -11.812803    1342.5027 
    6710    146.21457   -11.831697            0   -11.812803    1332.2628 
    6720    147.26053   -11.831832            0   -11.812803    1324.6001 
    6730    148.54427   -11.831998            0   -11.812803    1319.9983 
    6740    149.96247   -11.832181            0   -11.812803    1316.3967 
    6750    151.39295   -11.832366            0   -11.812803    1312.0872 
    6760    152.70419   -11.832535            0   -11.812803    1308.0027 
    6770    153.76837   -11.832673            0   -11.812803    1308.2509 
    6780    154.47471   -11.832764            0   -11.812803    1311.9181 
    6790    154.74168   -11.832799            0   -11.812803    1323.9272 
    6800    154.52328   -11.832771            0   -11.812803    1341.3597 
    6810    153.81269   -11.832679            0   -11.812803    1365.6104 
    6820    152.64536   -11.832528            0   -11.812803    1390.8092 
    6830    151.09538   -11.832328            0   -11.812803    1415.5823 
    6840    149.26977   -11.832092            0   -11.812803    1441.2107 
    6850    147.30522   -11.831838            0   -11.812803    1465.9958 
    6860    145.35351   -11.831586            0   -11.812803    1491.0899 
    6870    143.56966   -11.831355            0   -11.812803    1520.5443 
    6880    142.09641   -11.831165            0   -11.812803      1553.33 
    6890    141.05493    -11.83103            0   -11.812802    1581.4525 
    6900    140.53452   -11.830963            0   -11.812802    1602.3766 
    6910    140.58268   -11.830969            0   -11.812802    1621.3938 
    6920    141.20548   -11.831049            0   -11.812802    1633.4664 
    6930    142.36297   -11.831199            0   -11.812803    1636.1615 
    6940     143.9717   -11.831407            0   -11.812803    1627.5683 
    6950    145.91667   -11.831658            0   -11.812803     1607.602 
    6960    148.05883   -11.831935            0   -11.812803    1577.9738 
    6970    150.24631   -11.832218            0   -11.812803    1538.4591 
    6980    152.32988   -11.832487            0   -11.812803    1490.9041 
    6990    154.17451   -11.832725            0   -11.812803    1443.2997 
    7000    155.66877   -11.832919            0   -11.812803    1394.5903 
    7010    156.73671   -11.833057            0   -11.812803    1343.9625 
    7020    157.33931   -11.833134            0   -11.812803    1292.9968 
    7030    157.47291   -11.833152            0   -11.812803    1250.1307 
    7040    157.17047   -11.833113            0   -11.812803    1219.2665 
    7050    156.49428   -11.833025            0   -11.812803    1204.5727 
    7060    155.53214   -11.832901            0   -11.812803    1202.9056 
    7070    154.38882   -11.832753            0   -11.812803    1212.2251 
    7080    153.17403   -11.832596            0   -11.812803    1230.8573 
    7090    151.98881   -11.832443            0   -11.812803    1260.9302 
    7100     150.9194   -11.832305            0   -11.812803    1295.8705 
    7110    150.02995    -11.83219            0   -11.812803    1341.7365 
    7120    149.35751   -11.832103            0   -11.812803    1392.2541 
    7130    148.91147   -11.832045            0   -11.812803    1434.6936 
    7140    148.67307   -11.832014            0   -11.812803    1475.7856 
    7150    148.59931   -11.832005            0   -11.812803    1516.3386 
    7160    148.62829   -11.832009            0   -11.812803    1550.4455 
    7170    148.68661   -11.832016            0   -11.812803    1577.7585 
    7180    148.69526   -11.832017            0   -11.812803    1588.5061 
    7190    148.58547   -11.832003            0   -11.812803    1589.2528 
    7200    148.30549   -11.831967            0   -11.812803    1585.0648 
    7210     147.8263   -11.831905            0   -11.812803    1574.4304 
    7220    147.14607   -11.831817            0   -11.812803    1558.3846 
    7230    146.29346   -11.831707            0   -11.812803    1531.4525 
    7240    145.32621   -11.831582            0   -11.812803    1501.2804 
    7250    144.32252   -11.831452            0   -11.812803    1469.2355 
    7260     143.3752    -11.83133            0   -11.812803    1435.3339 
    7270    142.58419   -11.831228            0   -11.812803    1404.0904 
    7280    142.04731   -11.831158            0   -11.812803    1374.7816 
    7290    141.84854   -11.831133            0   -11.812803    1351.6584 
    7300    142.04776   -11.831158            0   -11.812803    1337.5819 
    7310     142.6741   -11.831239            0   -11.812803    1329.7638 
    7320    143.72175   -11.831375            0   -11.812803    1330.0647 
    7330    145.14708   -11.831559            0   -11.812803    1332.0146 
    7340    146.87333   -11.831782            0   -11.812803    1338.2941 
    7350    148.79232    -11.83203            0   -11.812803    1349.6757 
    7360    150.77581   -11.832286            0   -11.812803    1366.5179 
    7370      152.683   -11.832533            0   -11.812803    1384.8689 
    7380    154.37638   -11.832752            0   -11.812803     1403.017 
    7390    155.73375   -11.832927            0   -11.812803     1419.109 
    7400    156.65664   -11.833046            0   -11.812803    1432.5193 
    7410    157.07713   -11.833101            0   -11.812803    1443.0591 
    7420     156.9656   -11.833086            0   -11.812803    1443.0018 
    7430    156.33096   -11.833004            0   -11.812803     1435.837 
    7440     155.2183    -11.83286            0   -11.812803    1417.6246 
    7450    153.71244   -11.832666            0   -11.812803    1397.0342 
    7460    151.92589   -11.832435            0   -11.812803    1378.3282 
    7470    149.98699   -11.832184            0   -11.812803    1364.5938 
    7480    148.02806   -11.831931            0   -11.812803    1354.6389 
    7490    146.17417   -11.831692            0   -11.812803    1352.1415 
    7500    144.53679    -11.83148            0   -11.812803    1350.8087 
    7510    143.20424   -11.831308            0   -11.812803    1351.4529 
    7520     142.2368   -11.831183            0   -11.812803    1357.2364 
    7530    141.66766   -11.831109            0   -11.812803    1366.9248 
    7540    141.49982   -11.831088            0   -11.812803    1380.5245 
    7550    141.70798   -11.831114            0   -11.812803    1394.5622 
    7560    142.24491   -11.831184            0   -11.812803    1406.8658 
    7570     143.0432   -11.831287            0   -11.812803    1415.9911 
    7580    144.02691   -11.831414            0   -11.812803     1420.941 
    7590    145.11669   -11.831555            0   -11.812803    1424.8688 
    7600    146.23728     -11.8317            0   -11.812803    1424.3048 
    7610     147.3247    -11.83184            0   -11.812803    1419.7063 
    7620    148.32697    -11.83197            0   -11.812803    1412.6176 
    7630    149.20671   -11.832083            0   -11.812803    1403.5701 
    7640    149.94296   -11.832179            0   -11.812803    1386.0478 
    7650    150.52987   -11.832254            0   -11.812803    1366.4894 
    7660    150.97099   -11.832311            0   -11.812803    1347.3366 
    7670    151.27681   -11.832351            0   -11.812803    1323.0299 
    7680    151.46117   -11.832375            0   -11.812803    1296.9862 
    7690     151.5379   -11.832385            0   -11.812803     1274.669 
    7700    151.51683   -11.832382            0   -11.812803    1254.6763 
    7710     151.4016   -11.832367            0   -11.812803    1231.7525 
    7720    151.19566    -11.83234            0   -11.812803     1218.651 
    7730    150.89876   -11.832302            0   -11.812803    1212.6112 
    7740    150.50566   -11.832251            0   -11.812803    1214.9953 
    7750     150.0096   -11.832187            0   -11.812803    1223.2521 
    7760    149.40769   -11.832109            0   -11.812803    1239.1165 
    7770    148.70318   -11.832018            0   -11.812803    1260.1448 
    7780    147.90786   -11.831916            0   -11.812803    1283.3314 
    7790    147.04411   -11.831804            0   -11.812803    1306.4806 
    7800    146.14865   -11.831688            0   -11.812803    1332.9308 
    7810    145.27291   -11.831575            0   -11.812803    1365.2452 
    7820    144.47947   -11.831473            0   -11.812803    1395.4997 
    7830    143.83911    -11.83139            0   -11.812803    1423.2447 
    7840    143.42687   -11.831337            0   -11.812803    1448.2525 
    7850    143.31204   -11.831322            0   -11.812803    1469.6737 
    7860    143.55493   -11.831353            0   -11.812803    1482.4633 
    7870    144.19725   -11.831436            0   -11.812803    1485.2326 
    7880    145.25505   -11.831573            0   -11.812803    1486.4736 
    7890    146.71717   -11.831762            0   -11.812803    1485.5374 
    7900    148.53786   -11.831997            0   -11.812803    1484.8193 
    7910    150.63833   -11.832268            0   -11.812803    1484.2749 
    7920    152.91031   -11.832562            0   -11.812803    1484.5056 
    7930    155.21972    -11.83286            0   -11.812803    1485.1568 
    7940    157.41908   -11.833145            0   -11.812803    1486.1954 
    7950    159.35621   -11.833395            0   -11.812803    1484.5154 
    7960      160.887   -11.833593            0   -11.812803    1480.6911 
    7970    161.88443   -11.833722            0   -11.812803    1475.4679 
    7980    162.25272   -11.833769            0   -11.812803    1466.8207 
    7990    161.93071   -11.833728            0   -11.812803    1459.8464 
    8000    160.90219   -11.833595            0   -11.812803    1453.7944 
    8010    159.20016   -11.833375            0   -11.812803    1447.3583 
    8020    156.90766   -11.833079            0   -11.812803    1439.7858 
    8030    154.15379   -11.832723            0   -11.812803    1430.1406 
    8040    151.10343   -11.832329            0   -11.812803    1421.4858 
    8050    147.94399    -11.83192            0   -11.812803     1412.391 
    8060    144.87549   -11.831524            0   -11.812803    1401.4302 
    8070    142.09761   -11.831165            0   -11.812803    1392.6705 
    8080    139.78861   -11.830866            0   -11.812802    1384.0207 
    8090    138.09463   -11.830647            0   -11.812802     1370.254 
    8100    137.11855   -11.830521            0   -11.812802    1356.4244 
    8110    136.90853   -11.830494            0   -11.812802    1343.2586 
    8120     137.4559   -11.830565            0   -11.812802    1333.5903 
    8130    138.69833   -11.830725            0   -11.812802    1322.7362 
    8140    140.52751   -11.830962            0   -11.812803    1311.5402 
    8150    142.79516   -11.831255            0   -11.812803    1301.7593 
    8160    145.32494   -11.831582            0   -11.812803    1300.5842 
    8170    147.92778   -11.831918            0   -11.812803     1301.779 
    8180    150.41665    -11.83224            0   -11.812803    1305.3497 
    8190     152.6194   -11.832524            0   -11.812803    1312.4831 
    8200    154.39195   -11.832754            0   -11.812803    1324.2409 
    8210    155.62787   -11.832913            0   -11.812803    1339.4297 
    8220    156.26625   -11.832996            0   -11.812803    1359.0053 
    8230    156.29408   -11.832999            0   -11.812803    1378.1768 
    8240    155.74473   -11.832928            0   -11.812803    1401.9788 
    8250    154.69674   -11.832793            0   -11.812803    1422.4393 
    8260    153.26495   -11.832608            0   -11.812803    1440.7805 
    8270    151.58974   -11.832391            0   -11.812803     1456.132 
    8280    149.82163   -11.832163            0   -11.812803    1468.4165 
    8290    148.10939   -11.831942            0   -11.812803    1476.2806 
    8300    146.59041   -11.831745            0   -11.812803    1477.6468 
    8310    145.37379   -11.831588            0   -11.812803    1473.9408 
    8320    144.53205   -11.831479            0   -11.812803    1463.9086 
    8330    144.10081   -11.831424            0   -11.812803    1444.7572 
    8340    144.07595    -11.83142            0   -11.812803    1424.2078 
    8350    144.41298   -11.831464            0   -11.812803    1402.0109 
    8360    145.03871   -11.831545            0   -11.812803    1380.7579 
    8370    145.86109   -11.831651            0   -11.812803    1361.5644 
    8380    146.77733    -11.83177            0   -11.812803    1347.0241 
    8390    147.68613   -11.831887            0   -11.812803    1338.1954 
    8400    148.49784   -11.831992            0   -11.812803    1336.4398 
    8410    149.14243   -11.832075            0   -11.812803    1344.4144 
    8420    149.57345   -11.832131            0   -11.812803    1357.7373 
    8430    149.77394   -11.832157            0   -11.812803     1379.571 
    8440    149.75498   -11.832154            0   -11.812803      1407.67 
    8450     149.5505   -11.832128            0   -11.812803    1439.6021 
    8460    149.21362   -11.832084            0   -11.812803     1475.873 
    8470    148.81194   -11.832032            0   -11.812803    1508.1704 
    8480    148.42248   -11.831982            0   -11.812803    1531.1157 
    8490    148.12109   -11.831943            0   -11.812803    1552.2563 
    8500    147.97385   -11.831924            0   -11.812803    1568.3457 
    8510    148.02983   -11.831931            0   -11.812803    1578.5146 
    8520    148.31503   -11.831968            0   -11.812803      1577.15 
    8530    148.83098   -11.832035            0   -11.812803     1565.281 
    8540     149.5534   -11.832128            0   -11.812803    1541.7297 
    8550    150.43774   -11.832243            0   -11.812803    1513.7575 
    8560    151.41768   -11.832369            0   -11.812803    1487.8086 
    8570    152.41308   -11.832498            0   -11.812803    1458.1503 
    8580    153.34152   -11.832618            0   -11.812803    1426.2655 
    8590    154.12098   -11.832718            0   -11.812803    1396.4237 
    8600    154.67707    -11.83279            0   -11.812803    1365.0296 
    8610    154.95302   -11.832826            0   -11.812803    1337.6106 
    8620    154.91051   -11.832821            0   -11.812803    1322.6347 
    8630    154.53441   -11.832772            0   -11.812803    1319.2562 
    8640     153.8357   -11.832682            0   -11.812803     1328.281 
    8650    152.84629   -11.832554            0   -11.812803    1341.9523 
    8660    151.61525   -11.832395            0   -11.812803    1358.3545 
    8670    150.20794   -11.832213            0   -11.812803    1376.9075 
    8680    148.70336   -11.832018            0   -11.812803    1401.3233 
    8690    147.18831   -11.831823            0   -11.812803    1430.4424 
    8700      145.748   -11.831636            0   -11.812803    1463.0606 
    8710    144.45872    -11.83147            0   -11.812803    1498.0726 
    8720    143.38566   -11.831331            0   -11.812803    1531.5167 
    8730    142.58172   -11.831227            0   -11.812803    1560.8094 
    8740    142.08551   -11.831163            0   -11.812803    1582.3633 
    8750    141.91876   -11.831142            0   -11.812803    1597.5473 
    8760    142.08351   -11.831163            0   -11.812803    1603.7756 
    8770    142.56333   -11.831225            0   -11.812803    1604.7598 
    8780    143.32686   -11.831324            0   -11.812803    1602.2213 
    8790     144.3286   -11.831453            0   -11.812803     1591.616 
    8800    145.51352   -11.831606            0   -11.812803    1576.1163 
    8810    146.82286   -11.831775            0   -11.812803    1554.7105 
    8820    148.19684   -11.831953            0   -11.812803    1529.1157 
    8830    149.57813   -11.832131            0   -11.812803    1500.5286 
    8840    150.91059   -11.832304            0   -11.812803    1469.9008 
    8850    152.14374   -11.832463            0   -11.812803    1440.7423 
    8860    153.23481   -11.832604            0   -11.812803    1421.0955 
    8870    154.15289   -11.832723            0   -11.812803    1409.1155 
    8880    154.86977   -11.832815            0   -11.812803    1400.2712 
    8890    155.37055    -11.83288            0   -11.812803    1391.9102 
    8900    155.64877   -11.832916            0   -11.812803    1379.6845 
    8910    155.70536   -11.832923            0   -11.812803    1373.6702 
    8920    155.54938   -11.832903            0   -11.812803     1377.267 
    8930    155.19802   -11.832858            0   -11.812803    1383.6832 
    8940    154.67575    -11.83279            0   -11.812803    1393.1904 
    8950    154.01094   -11.832704            0   -11.812803    1405.0961 
    8960    153.23178   -11.832604            0   -11.812803    1416.2225 
    8970    152.36486   -11.832492            0   -11.812803     1425.271 
    8980     151.4425   -11.832372            0   -11.812803    1431.5117 
    8990    150.49422    -11.83225            0   -11.812803    1432.8012 
    9000    149.55125   -11.832128            0   -11.812803    1428.4933 
    9010    148.64488   -11.832011            0   -11.812803    1425.3672 
    9020     147.8032   -11.831902            0   -11.812803     1420.845 
    9030    147.04945   -11.831805            0   -11.812803    1417.1511 
    9040    146.40214   -11.831721            0   -11.812803    1413.8425 
    9050     145.8762   -11.831653            0   -11.812803     1408.542 
    9060    145.47864   -11.831602            0   -11.812803    1403.5532 
    9070    145.20873   -11.831567            0   -11.812803    1400.7903 
    9080    145.06078   -11.831548            0   -11.812803    1399.4798 
    9090     145.0256   -11.831543            0   -11.812803    1399.9847 
    9100    145.09241   -11.831552            0   -11.812803    1403.5554 
    9110    145.25104   -11.831572            0   -11.812803    1408.1595 
    9120    145.49086   -11.831603            0   -11.812803    1412.0611 
    9130    145.80111   -11.831643            0   -11.812803     1417.108 
    9140    146.17317   -11.831691            0   -11.812803    1426.1549 
    9150    146.59671   -11.831746            0   -11.812803    1440.1316 
    9160    147.06334   -11.831806            0   -11.812803    1453.7147 
    9170    147.56503   -11.831871            0   -11.812803    1467.9898 
    9180      148.097    -11.83194            0   -11.812803    1487.7428 
    9190    148.65341   -11.832012            0   -11.812803    1508.3571 
    9200    149.22307   -11.832086            0   -11.812803    1522.0176 
    9210    149.78852   -11.832159            0   -11.812803    1528.3129 
    9220    150.32691   -11.832228            0   -11.812803    1525.4833 
    9230    150.81332   -11.832291            0   -11.812803    1517.2098 
    9240    151.21989   -11.832344            0   -11.812803    1503.7395 
    9250    151.51662   -11.832382            0   -11.812803    1485.1605 
    9260    151.67226   -11.832402            0   -11.812803    1466.1503 
    9270    151.65996     -11.8324            0   -11.812803    1446.0431 
    9280    151.45759   -11.832374            0   -11.812803    1423.2742 
    9290    151.05562   -11.832322            0   -11.812803    1399.3769 
    9300    150.46039   -11.832245            0   -11.812803    1374.9168 
    9310    149.69212   -11.832146            0   -11.812803    1351.0905 
    9320    148.78392   -11.832029            0   -11.812803    1329.9616 
    9330    147.78195   -11.831899            0   -11.812803     1308.458 
    9340    146.74252   -11.831765            0   -11.812803    1290.6067 
    9350    145.73061   -11.831634            0   -11.812803    1278.2906 
    9360    144.81715   -11.831516            0   -11.812803    1269.3683 
    9370     144.0715    -11.83142            0   -11.812803    1268.6058 
    9380    143.55488   -11.831353            0   -11.812803    1270.5784 
    9390    143.31546   -11.831322            0   -11.812803    1274.6062 
    9400    143.38145   -11.831331            0   -11.812803    1278.2917 
    9410    143.76031    -11.83138            0   -11.812803    1283.1987 
    9420    144.43666   -11.831467            0   -11.812803    1290.7123 
    9430    145.36991   -11.831588            0   -11.812803     1297.276 
    9440    146.49958   -11.831734            0   -11.812803    1301.5514 
    9450    147.74972   -11.831895            0   -11.812803    1308.7451 
    9460    149.03048   -11.832061            0   -11.812803    1317.1557 
    9470    150.24972   -11.832218            0   -11.812803    1327.5766 
    9480    151.32043   -11.832357            0   -11.812803    1338.5636 
    9490    152.16324   -11.832466            0   -11.812803    1352.6858 
    9500    152.71373   -11.832537            0   -11.812803    1370.6651 
    9510    152.93129   -11.832565            0   -11.812803    1387.8014 
    9520     152.7999   -11.832548            0   -11.812803    1397.8847 
    9530     152.3272   -11.832487            0   -11.812803    1405.7518 
    9540    151.54998   -11.832386            0   -11.812803    1418.8729 
    9550    150.52889   -11.832254            0   -11.812803    1429.2568 
    9560    149.34547   -11.832101            0   -11.812803    1436.8096 
    9570    148.09498    -11.83194            0   -11.812803    1439.7873 
    9580    146.88154   -11.831783            0   -11.812803    1446.2456 
    9590     145.8072   -11.831644            0   -11.812803    1457.0972 
    9600    144.96276   -11.831535            0   -11.812803    1466.0096 
    9610    144.42465   -11.831465            0   -11.812803    1470.1298 
    9620    144.24811   -11.831443            0   -11.812803    1473.8883 
    9630    144.46065    -11.83147            0   -11.812803    1471.7278 
    9640    145.05863   -11.831547            0   -11.812803    1468.9632 
    9650    146.00931    -11.83167            0   -11.812803    1465.7016 
    9660    147.25454   -11.831831            0   -11.812803    1458.7191 
    9670    148.71258    -11.83202            0   -11.812803    1443.0683 
    9680    150.28576   -11.832223            0   -11.812803    1421.6892 
    9690    151.86426   -11.832427            0   -11.812803    1398.3363 
    9700    153.33632   -11.832617            0   -11.812803    1373.4517 
    9710     154.5966    -11.83278            0   -11.812803    1346.8654 
    9720    155.55372   -11.832904            0   -11.812803    1324.0464 
    9730    156.13646   -11.832979            0   -11.812803     1307.994 
    9740    156.30298      -11.833            0   -11.812803    1294.3807 
    9750    156.03775   -11.832966            0   -11.812803    1287.2603 
    9760     155.3574   -11.832878            0   -11.812803    1282.9084 
    9770    154.30576   -11.832742            0   -11.812803    1279.8914 
    9780    152.94772   -11.832567            0   -11.812803    1278.8222 
    9790    151.36815   -11.832363            0   -11.812803    1279.4192 
    9800    149.66774   -11.832143            0   -11.812803    1286.1324 
    9810    147.95366   -11.831922            0   -11.812803    1295.6899 
    9820    146.33503   -11.831712            0   -11.812803    1309.3452 
    9830    144.91444   -11.831529            0   -11.812803    1324.6869 
    9840    143.77966   -11.831382            0   -11.812803    1337.7719 
    9850     143.0003   -11.831281            0   -11.812803    1349.7399 
    9860      142.624   -11.831233            0   -11.812803    1364.2619 
    9870    142.67153   -11.831239            0   -11.812803    1379.0165 
    9880    143.13932   -11.831299            0   -11.812803    1395.7956 
    9890    143.99369    -11.83141            0   -11.812803     1411.359 
    9900    145.17718   -11.831563            0   -11.812803    1425.6458 
    9910    146.61144   -11.831748            0   -11.812803    1436.5259 
    9920    148.20503   -11.831954            0   -11.812803    1446.6141 
    9930    149.85905   -11.832168            0   -11.812803    1458.1626 
    9940    151.47289   -11.832376            0   -11.812803    1464.7944 
    9950    152.95166   -11.832567            0   -11.812803    1469.1116 
    9960    154.20795    -11.83273            0   -11.812803    1470.3787 
    9970    155.16613   -11.832854            0   -11.812803     1469.612 
    9980    155.76911   -11.832931            0   -11.812803    1462.8421 
    9990    155.98227   -11.832959            0   -11.812803    1455.8652 
   10000    155.79044   -11.832934            0   -11.812803    1444.5467 
Loop time of 13.7669 on 1 procs for 10000 steps with 3456 atoms

Performance: 31.380 ns/day, 0.765 hours/ns, 726.380 timesteps/s
72.5% CPU use with 1 MPI tasks x 1 OpenMP threads

MPI task timing breakdown:
Section |  min time  |  avg time  |  max time  |%varavg| %total
---------------------------------------------------------------
Pair    | 12.568     | 12.568     | 12.568     |   0.0 | 91.29
Neigh   | 0          | 0          | 0          |   0.0 |  0.00
Comm    | 0.44332    | 0.44332    | 0.44332    |   0.0 |  3.22
Output  | 0.048149   | 0.048149   | 0.048149   |   0.0 |  0.35
Modify  | 0.22637    | 0.22637    | 0.22637    |   0.0 |  1.64
Other   |            | 0.4806     |            |       |  3.49

Nlocal:        3456.00 ave        3456 max        3456 min
Histogram: 1 0 0 0 0 0 0 0 0 0
Nghost:        4015.00 ave        4015 max        4015 min
Histogram: 1 0 0 0 0 0 0 0 0 0
Neighs:        100224.0 ave      100224 max      100224 min
Histogram: 1 0 0 0 0 0 0 0 0 0
FullNghs:      200448.0 ave      200448 max      200448 min
Histogram: 1 0 0 0 0 0 0 0 0 0

Total # of neighbors = 200448
Ave neighs/atom = 58.000000
Neighbor list builds = 0
Dangerous builds = 0
Total wall time: 0:00:16
