LAMMPS (2 Jul 2021)
KOKKOS mode is enabled (src/KOKKOS/kokkos.cpp:97)
  will use up to 1 GPU(s) per node
  using 1 OpenMP thread(s) per MPI task
Lattice spacing in x,y,z = 3.3160000 3.3160000 3.3160000
Created orthogonal box = (0.0000000 0.0000000 0.0000000) to (13.264000 13.264000 13.264000)
  1 by 1 by 1 MPI processor grid
Created 128 atoms
  create_atoms CPU = 0.001 seconds
Reading potential file Ta06A.snapcoeff with DATE: 2014-09-05
SNAP Element = Ta, Radius 0.5, Weight 1
Reading potential file Ta06A.snapparam with DATE: 2014-09-05
SNAP keyword rcutfac 4.67637
SNAP keyword twojmax 6
SNAP keyword rfac0 0.99363
SNAP keyword rmin0 0
SNAP keyword bzeroflag 0
SNAP keyword quadraticflag 0
Neighbor list info ...
  update every 1 steps, delay 0 steps, check yes
  max neighbors/atom: 2000, page size: 100000
  master list distance cutoff = 5.8
  ghost atom cutoff = 5.8
  binsize = 5.8, bins = 3 3 3
  2 neighbor lists, perpetual/occasional/extra = 2 0 0
  (1) pair zbl, perpetual, half/full from (2)
      attributes: half, newton on, kokkos_device
      pair build: halffull/newton/kk/device
      stencil: none
      bin: none
  (2) pair snap, perpetual
      attributes: full, newton on, kokkos_device
      pair build: full/bin/kk/device
      stencil: full/bin/3d
      bin: kk/device
Setting up Verlet run ...
  Unit style    : metal
  Current step  : 0
  Time step     : 0.0005
Per MPI rank memory allocation (min/avg/max) = 2.023 | 2.023 | 2.023 Mbytes
Step Temp E_pair E_mol TotEng Press 
       0          300    -11.85157            0   -11.813095    2717.1661 
      10    296.01467   -11.851059            0   -11.813095    2697.4796 
      20    284.53666   -11.849587            0   -11.813095    2289.1527 
      30    266.51577   -11.847275            0   -11.813095    1851.7131 
      40    243.05007   -11.844266            0   -11.813095     1570.684 
      50    215.51032   -11.840734            0   -11.813094    1468.1899 
      60    185.48331   -11.836883            0   -11.813094    1524.8757 
      70     154.6736   -11.832931            0   -11.813094    1698.3351 
      80    124.79303   -11.829099            0   -11.813094    1947.0715 
      90    97.448054   -11.825592            0   -11.813094    2231.9563 
     100    74.035418   -11.822589            0   -11.813094    2515.8526 
     110    55.654411   -11.820232            0   -11.813094    2765.7198 
     120    43.042958   -11.818614            0   -11.813094    2956.7264 
     130    36.541788    -11.81778            0   -11.813094    3067.2115 
     140    36.090813   -11.817722            0   -11.813094    3093.5718 
     150    41.256479   -11.818385            0   -11.813094    3037.1542 
     160    51.286422   -11.819671            0   -11.813094    2901.6541 
     170    65.188001   -11.821454            0   -11.813094    2693.9697 
     180    81.812387   -11.823587            0   -11.813094     2440.238 
     190    99.948535   -11.825913            0   -11.813094    2167.0312 
     200    118.41665   -11.828281            0   -11.813094    1901.7755 
     210    136.14363   -11.830555            0   -11.813094     1656.111 
     220    152.22329   -11.832617            0   -11.813094    1441.8898 
     230    165.96267   -11.834379            0   -11.813095    1274.4165 
     240    176.90362   -11.835782            0   -11.813095    1169.9234 
     250     184.8183   -11.836798            0   -11.813095    1118.3311 
     260    189.69583   -11.837423            0   -11.813095    1097.5067 
     270    191.74359   -11.837686            0   -11.813094    1118.8726 
     280    191.32782   -11.837632            0   -11.813094    1165.8765 
     290    188.93057   -11.837325            0   -11.813094    1193.1595 
     300    185.08407   -11.836831            0   -11.813094    1213.3782 
     310    180.33582   -11.836222            0   -11.813094    1223.4279 
     320    175.23785   -11.835569            0   -11.813094    1228.0083 
     330    170.25111   -11.834929            0   -11.813094    1276.8297 
     340     165.7163   -11.834347            0   -11.813094    1347.3066 
     350    161.85515   -11.833852            0   -11.813094    1424.7621 
     360     158.7565   -11.833455            0   -11.813094    1499.1768 
     370    156.38651   -11.833151            0   -11.813094    1563.5154 
     380    154.62822   -11.832925            0   -11.813094    1599.7834 
     390    153.30589   -11.832756            0   -11.813094     1619.785 
     400    152.21555   -11.832616            0   -11.813094    1626.9065 
     410    151.14205   -11.832478            0   -11.813094     1615.487 
     420    149.90123   -11.832319            0   -11.813094    1578.0629 
     430     148.3604   -11.832122            0   -11.813094    1542.8664 
     440     146.4607   -11.831878            0   -11.813094    1506.2758 
     450    144.20607   -11.831589            0   -11.813094    1492.8874 
     460    141.66499   -11.831263            0   -11.813094    1497.2228 
     470    138.95456   -11.830915            0   -11.813094    1511.0658 
     480    136.24457   -11.830568            0   -11.813094    1545.5502 
     490    133.74762   -11.830247            0   -11.813094    1593.5687 
     500    131.67606   -11.829982            0   -11.813094    1646.3796 
     510    130.23895   -11.829797            0   -11.813094    1698.3437 
     520    129.61643   -11.829718            0   -11.813094    1767.5516 
     530    129.92905   -11.829758            0   -11.813094    1845.5882 
     540    131.22056   -11.829923            0   -11.813094    1907.4951 
     550    133.46579   -11.830211            0   -11.813094    1966.6623 
     560    136.56744   -11.830609            0   -11.813094    2026.6345 
     570    140.35796   -11.831095            0   -11.813094    2061.5623 
     580    144.60152   -11.831639            0   -11.813094    2058.3833 
     590    149.04021   -11.832209            0   -11.813094    2011.0819 
     600    153.38659   -11.832766            0   -11.813094    1954.4978 
     610    157.37777   -11.833278            0   -11.813094    1891.4254 
     620    160.77747   -11.833714            0   -11.813094    1791.8831 
     630      163.392   -11.834049            0   -11.813094    1686.9827 
     640    165.08737   -11.834267            0   -11.813094    1576.0861 
     650    165.80406   -11.834359            0   -11.813094    1472.2632 
     660    165.55952   -11.834327            0   -11.813094    1362.9636 
     670    164.44983   -11.834185            0   -11.813094    1266.5338 
     680    162.63436   -11.833952            0   -11.813094    1171.8967 
     690    160.31932   -11.833655            0   -11.813094    1098.2444 
     700    157.71755   -11.833322            0   -11.813094    1040.6475 
     710    155.04766   -11.832979            0   -11.813094    1021.5166 
     720    152.52522   -11.832656            0   -11.813094    1029.4221 
     730    150.33932   -11.832375            0   -11.813094    1058.8841 
     740     148.6258   -11.832156            0   -11.813094    1105.1104 
     750    147.42498   -11.832002            0   -11.813094    1190.2273 
     760    146.72318   -11.831912            0   -11.813094    1322.4841 
     770    146.45231   -11.831877            0   -11.813094    1487.5418 
     780    146.49525   -11.831882            0   -11.813094     1654.824 
     790    146.71481    -11.83191            0   -11.813094    1840.4698 
     800    146.96367   -11.831942            0   -11.813094    2009.1032 
     810    147.10804   -11.831961            0   -11.813094    2170.5151 
     820     147.0262    -11.83195            0   -11.813094    2308.4719 
     830    146.63879   -11.831901            0   -11.813094    2404.0068 
     840     145.9137   -11.831808            0   -11.813094    2460.7645 
     850    144.88191   -11.831675            0   -11.813094    2457.8118 
     860    143.63182   -11.831515            0   -11.813094    2426.7636 
     870    142.29116   -11.831343            0   -11.813094     2342.236 
     880    141.00913   -11.831179            0   -11.813094    2215.4929 
     890    139.93532   -11.831041            0   -11.813094    2053.8769 
     900    139.23012   -11.830951            0   -11.813094    1878.0194 
     910     139.0271   -11.830924            0   -11.813094     1693.165 
     920    139.41325   -11.830974            0   -11.813094    1495.0407 
     930    140.43173   -11.831105            0   -11.813094    1323.5696 
     940    142.05979   -11.831313            0   -11.813094    1190.0091 
     950    144.21836    -11.83159            0   -11.813094     1090.134 
     960    146.77944   -11.831919            0   -11.813094    1019.0166 
     970     149.5762   -11.832277            0   -11.813094    1010.2451 
     980      152.417   -11.832642            0   -11.813094    1020.5496 
     990    155.11908   -11.832988            0   -11.813094    1035.5122 
    1000    157.51133   -11.833295            0   -11.813094    1071.7438 
    1010    159.44424   -11.833543            0   -11.813094    1129.3569 
    1020    160.79612   -11.833716            0   -11.813094    1199.8696 
    1030    161.49234   -11.833806            0   -11.813094    1262.9963 
    1040    161.50658   -11.833808            0   -11.813094    1294.3218 
    1050    160.87346   -11.833726            0   -11.813094    1312.2117 
    1060    159.66773   -11.833572            0   -11.813094    1341.0886 
    1070    157.99935   -11.833358            0   -11.813094    1361.4794 
    1080    155.99747   -11.833101            0   -11.813094    1365.5298 
    1090    153.81434   -11.832821            0   -11.813094    1356.1273 
    1100    151.60767   -11.832538            0   -11.813094    1355.1541 
    1110    149.51626    -11.83227            0   -11.813094    1349.1229 
    1120    147.64429    -11.83203            0   -11.813094    1341.2448 
    1130    146.05633   -11.831826            0   -11.813094    1312.0242 
    1140    144.77923   -11.831662            0   -11.813094    1278.7672 
    1150     143.7988   -11.831536            0   -11.813094    1252.0156 
    1160    143.06592   -11.831443            0   -11.813094    1227.8437 
    1170    142.50253    -11.83137            0   -11.813094    1237.1103 
    1180    142.00731   -11.831307            0   -11.813094    1284.7782 
    1190    141.46693   -11.831237            0   -11.813094    1362.8036 
    1200    140.77388   -11.831149            0   -11.813094     1464.406 
    1210    139.85726   -11.831031            0   -11.813094    1596.4519 
    1220    138.69247   -11.830882            0   -11.813094    1764.6588 
    1230    137.30147   -11.830703            0   -11.813094    1943.2617 
    1240    135.76266   -11.830506            0   -11.813094    2106.1702 
    1250    134.20191   -11.830306            0   -11.813094    2252.3961 
    1260    132.79977   -11.830126            0   -11.813094     2374.475 
    1270    131.78153   -11.829995            0   -11.813094    2447.4435 
    1280    131.39582   -11.829946            0   -11.813094    2485.0791 
    1290    131.87657   -11.830007            0   -11.813094    2494.7106 
    1300    133.42108   -11.830205            0   -11.813094    2451.2993 
    1310    136.16177   -11.830557            0   -11.813094    2382.1434 
    1320    140.15287   -11.831069            0   -11.813094     2288.073 
    1330    145.34081   -11.831734            0   -11.813094    2164.9125 
    1340    151.57082   -11.832533            0   -11.813094    2021.4364 
    1350    158.58373   -11.833433            0   -11.813094    1858.1108 
    1360    166.01654   -11.834386            0   -11.813094    1707.4484 
    1370    173.43084   -11.835337            0   -11.813094    1582.1999 
    1380    180.34978   -11.836224            0   -11.813094    1440.2252 
    1390    186.29646   -11.836987            0   -11.813094    1274.5171 
    1400    190.79389   -11.837564            0   -11.813094     1121.059 
    1410    193.42967   -11.837902            0   -11.813094    995.58285 
    1420    193.90967   -11.837963            0   -11.813094     880.8083 
    1430    192.07007   -11.837728            0   -11.813094    808.98017 
    1440     187.8788    -11.83719            0   -11.813094    774.42943 
    1450    181.48294    -11.83637            0   -11.813094    779.46376 
    1460    173.16563   -11.835303            0   -11.813094    825.45252 
    1470    163.34562   -11.834043            0   -11.813094    929.70601 
    1480    152.56129    -11.83266            0   -11.813094    1066.6725 
    1490    141.42037   -11.831231            0   -11.813094    1243.7478 
    1500    130.54192   -11.829836            0   -11.813094    1460.8766 
    1510     120.5434   -11.828554            0   -11.813094    1692.6622 
    1520    112.00317   -11.827459            0   -11.813094    1927.7366 
    1530    105.40765   -11.826613            0   -11.813094    2131.7388 
    1540    101.10894   -11.826061            0   -11.813094    2297.4074 
    1550     99.30497    -11.82583            0   -11.813094     2413.939 
    1560    100.03442   -11.825924            0   -11.813094    2490.1506 
    1570    103.17527   -11.826326            0   -11.813094    2507.1455 
    1580    108.45186   -11.827003            0   -11.813094    2477.1898 
    1590    115.46512   -11.827903            0   -11.813094     2387.864 
    1600    123.72163   -11.828962            0   -11.813094    2248.9165 
    1610    132.67766    -11.83011            0   -11.813094    2091.0779 
    1620    141.77971   -11.831278            0   -11.813094    1905.6191 
    1630    150.50154   -11.832396            0   -11.813094    1710.8243 
    1640    158.38257   -11.833407            0   -11.813094    1549.0327 
    1650    165.05195   -11.834262            0   -11.813094    1400.8825 
    1660    170.24862   -11.834929            0   -11.813094    1250.3206 
    1670    173.83512   -11.835389            0   -11.813094    1122.5956 
    1680    175.79236    -11.83564            0   -11.813094    1013.3133 
    1690    176.21461   -11.835694            0   -11.813094    944.90195 
    1700    175.27378   -11.835573            0   -11.813094    916.58641 
    1710    173.21085   -11.835309            0   -11.813094    910.50304 
    1720     170.3044   -11.834936            0   -11.813094    924.64169 
    1730    166.86435   -11.834495            0   -11.813094    964.56659 
    1740    163.20138   -11.834025            0   -11.813094     1019.425 
    1750     159.5814   -11.833561            0   -11.813094    1112.7161 
    1760    156.21727   -11.833129            0   -11.813094    1207.4926 
    1770    153.27675   -11.832752            0   -11.813094    1329.4985 
    1780    150.84379    -11.83244            0   -11.813094    1483.0979 
    1790    148.93485   -11.832195            0   -11.813094    1654.2905 
    1800    147.51685   -11.832013            0   -11.813094    1846.6256 
    1810    146.53035   -11.831887            0   -11.813094    2034.3387 
    1820    145.88806   -11.831804            0   -11.813094    2182.1545 
    1830    145.47385   -11.831751            0   -11.813094    2296.5907 
    1840     145.1761   -11.831713            0   -11.813094    2366.9779 
    1850    144.88478   -11.831676            0   -11.813094     2398.053 
    1860     144.5078   -11.831627            0   -11.813094    2395.3548 
    1870    143.98454    -11.83156            0   -11.813094     2360.182 
    1880    143.28336    -11.83147            0   -11.813094    2284.8217 
    1890    142.40644   -11.831358            0   -11.813094    2169.6634 
    1900    141.39941   -11.831229            0   -11.813094    2030.1892 
    1910    140.32851   -11.831091            0   -11.813094    1875.7803 
    1920    139.27663   -11.830957            0   -11.813094    1737.7602 
    1930    138.34567   -11.830837            0   -11.813094    1624.7455 
    1940    137.63732   -11.830746            0   -11.813094    1536.3299 
    1950    137.25003   -11.830697            0   -11.813094    1462.5383 
    1960    137.25305   -11.830697            0   -11.813094    1374.1651 
    1970    137.68761   -11.830753            0   -11.813094    1323.1017 
    1980    138.57453   -11.830866            0   -11.813094    1312.8625 
    1990    139.90014   -11.831036            0   -11.813094    1320.0099 
    2000    141.63433   -11.831259            0   -11.813094    1326.8603 
    2010    143.71845   -11.831526            0   -11.813094    1365.0376 
    2020    146.06562   -11.831827            0   -11.813094    1413.4217 
    2030    148.57819   -11.832149            0   -11.813094     1478.835 
    2040    151.16007   -11.832481            0   -11.813094    1531.9773 
    2050    153.72431   -11.832809            0   -11.813094     1585.718 
    2060    156.20267   -11.833127            0   -11.813094    1651.4643 
    2070    158.54034   -11.833427            0   -11.813094    1705.1075 
    2080     160.6863   -11.833702            0   -11.813094    1746.4747 
    2090    162.62117   -11.833951            0   -11.813094    1797.7119 
    2100    164.34183   -11.834171            0   -11.813094    1861.1651 
    2110    165.83173   -11.834362            0   -11.813094    1895.5594 
    2120    167.05675   -11.834519            0   -11.813094    1913.2254 
    2130    167.97729   -11.834637            0   -11.813094    1899.1012 
    2140    168.57701   -11.834714            0   -11.813094    1867.7028 
    2150    168.81235   -11.834745            0   -11.813094    1814.3323 
    2160    168.62059    -11.83472            0   -11.813094    1782.0307 
    2170    167.92729   -11.834631            0   -11.813094    1759.4286 
    2180    166.66442   -11.834469            0   -11.813094    1735.7758 
    2190    164.77206   -11.834226            0   -11.813094    1713.9576 
    2200    162.17613   -11.833893            0   -11.813094     1685.915 
    2210    158.83703   -11.833465            0   -11.813094    1659.0161 
    2220    154.73961    -11.83294            0   -11.813094    1659.3517 
    2230     149.9062    -11.83232            0   -11.813094    1661.6896 
    2240    144.41122   -11.831615            0   -11.813094    1644.3591 
    2250    138.39378   -11.830843            0   -11.813094    1635.5958 
    2260    132.06956   -11.830032            0   -11.813094    1621.0005 
    2270    125.72366   -11.829218            0   -11.813094    1609.9355 
    2280      119.708   -11.828447            0   -11.813094    1604.6373 
    2290    114.41386   -11.827768            0   -11.813094    1606.7167 
    2300    110.23869   -11.827232            0   -11.813094     1606.908 
    2310     107.5641   -11.826889            0   -11.813094    1610.3669 
    2320    106.71416    -11.82678            0   -11.813094    1604.9746 
    2330    107.91661   -11.826934            0   -11.813094    1598.7583 
    2340    111.27585   -11.827365            0   -11.813094    1594.2782 
    2350    116.75957   -11.828069            0   -11.813094    1578.7489 
    2360    124.18617   -11.829021            0   -11.813094    1550.1319 
    2370    133.21993    -11.83018            0   -11.813094    1526.5613 
    2380    143.39823   -11.831485            0   -11.813094    1531.8718 
    2390    154.15618   -11.832865            0   -11.813094    1555.4731 
    2400    164.87228   -11.834239            0   -11.813094    1584.2882 
    2410    174.89392   -11.835525            0   -11.813094    1592.2209 
    2420     183.5991   -11.836641            0   -11.813094    1581.8814 
    2430    190.45007    -11.83752            0   -11.813094    1592.9332 
    2440    195.02968   -11.838107            0   -11.813094    1606.9361 
    2450    197.05478   -11.838367            0   -11.813094    1622.8663 
    2460    196.40455   -11.838283            0   -11.813094    1656.6346 
    2470    193.13051   -11.837864            0   -11.813094    1688.1592 
    2480    187.45725   -11.837136            0   -11.813094    1696.0408 
    2490    179.75905   -11.836149            0   -11.813094    1698.0293 
    2500    170.52528   -11.834964            0   -11.813094    1696.2063 
    2510     160.3202   -11.833655            0   -11.813094     1723.943 
    2520    149.73865   -11.832298            0   -11.813094    1772.0662 
    2530     139.3886   -11.830971            0   -11.813094    1812.0373 
    2540    129.87369   -11.829751            0   -11.813094    1858.2774 
    2550    121.72543   -11.828705            0   -11.813094    1900.6495 
    2560    115.37611   -11.827891            0   -11.813094    1929.9339 
    2570    111.12367   -11.827346            0   -11.813094     1950.985 
    2580    109.12775    -11.82709            0   -11.813094    1965.0896 
    2590    109.40284   -11.827125            0   -11.813094    1954.7201 
    2600    111.83083   -11.827436            0   -11.813094    1939.9451 
    2610    116.16083   -11.827992            0   -11.813094    1921.5861 
    2620    122.03046   -11.828745            0   -11.813094    1901.2802 
    2630    129.00018   -11.829639            0   -11.813094    1864.7699 
    2640    136.59364   -11.830612            0   -11.813094    1812.6067 
    2650    144.33415   -11.831605            0   -11.813094    1737.3717 
    2660     151.7508   -11.832556            0   -11.813094    1657.7137 
    2670    158.45157   -11.833416            0   -11.813094    1597.9371 
    2680    164.14182   -11.834146            0   -11.813094    1526.3959 
    2690    168.63074   -11.834721            0   -11.813094    1442.2267 
    2700    171.82388   -11.835131            0   -11.813094    1370.8098 
    2710    173.70678   -11.835372            0   -11.813094    1319.6689 
    2720    174.35832   -11.835456            0   -11.813094    1274.4565 
    2730    173.94846   -11.835403            0   -11.813094    1239.9737 
    2740    172.69155   -11.835242            0   -11.813094    1226.0328 
    2750    170.81178   -11.835001            0   -11.813094    1253.0624 
    2760    168.53707   -11.834709            0   -11.813094    1267.2103 
    2770    166.06115   -11.834392            0   -11.813094     1289.042 
    2780    163.53868   -11.834068            0   -11.813094    1310.7502 
    2790    161.08574   -11.833754            0   -11.813094    1355.1808 
    2800    158.77052   -11.833457            0   -11.813094    1424.2645 
    2810    156.62337   -11.833181            0   -11.813094     1519.768 
    2820    154.64438   -11.832927            0   -11.813094    1611.1714 
    2830    152.81293   -11.832693            0   -11.813094    1695.0511 
    2840    151.08091    -11.83247            0   -11.813094    1775.3877 
    2850    149.37695   -11.832252            0   -11.813094     1873.047 
    2860     147.6245   -11.832027            0   -11.813094    1960.0706 
    2870    145.76001   -11.831788            0   -11.813094    2011.9326 
    2880    143.75243   -11.831531            0   -11.813094    2006.5007 
    2890    141.60382   -11.831255            0   -11.813094    1970.2311 
    2900     139.3255   -11.830963            0   -11.813094    1924.2401 
    2910    136.95932   -11.830659            0   -11.813094    1880.9764 
    2920    134.58756   -11.830355            0   -11.813094    1831.8781 
    2930    132.31643   -11.830064            0   -11.813094    1789.1276 
    2940    130.26364   -11.829801            0   -11.813094    1757.0577 
    2950    128.56169   -11.829582            0   -11.813094    1742.2535 
    2960    127.34633   -11.829426            0   -11.813094    1734.1577 
    2970    126.73008   -11.829347            0   -11.813094    1738.1016 
    2980    126.79826   -11.829356            0   -11.813094     1756.793 
    2990    127.58229   -11.829457            0   -11.813094    1768.4518 
    3000    129.06032   -11.829646            0   -11.813094    1767.3906 
    3010    131.17619   -11.829918            0   -11.813094    1762.4452 
    3020    133.83698   -11.830259            0   -11.813094    1755.4988 
    3030     136.9131   -11.830653            0   -11.813094    1766.3765 
    3040    140.25715   -11.831082            0   -11.813094    1764.9981 
    3050    143.71827   -11.831526            0   -11.813094    1738.1195 
    3060    147.15829   -11.831967            0   -11.813094    1686.8959 
    3070    150.46088   -11.832391            0   -11.813094    1625.3015 
    3080    153.53735   -11.832786            0   -11.813094    1558.4562 
    3090    156.32493   -11.833143            0   -11.813094    1491.9071 
    3100    158.78535   -11.833459            0   -11.813094    1420.8251 
    3110    160.91269   -11.833731            0   -11.813094    1336.2617 
    3120    162.72014   -11.833963            0   -11.813094    1268.9516 
    3130    164.21666   -11.834155            0   -11.813094    1236.3697 
    3140    165.42331    -11.83431            0   -11.813094    1248.9071 
    3150    166.36362    -11.83443            0   -11.813094     1292.149 
    3160    167.04001   -11.834517            0   -11.813094    1368.0601 
    3170    167.44285   -11.834569            0   -11.813094    1441.1945 
    3180    167.54528   -11.834582            0   -11.813094    1521.3996 
    3190    167.30392   -11.834551            0   -11.813094    1630.6991 
    3200    166.67959   -11.834471            0   -11.813094    1762.5604 
    3210    165.63111   -11.834337            0   -11.813094    1874.9675 
    3220    164.12535   -11.834143            0   -11.813094     1969.846 
    3230    162.15584   -11.833891            0   -11.813094    2051.5007 
    3240    159.73543    -11.83358            0   -11.813094    2121.5018 
    3250    156.91138   -11.833218            0   -11.813094    2177.4673 
    3260    153.77534   -11.832816            0   -11.813094    2193.9602 
    3270    150.44842   -11.832389            0   -11.813094    2181.0311 
    3280    147.09471   -11.831959            0   -11.813094    2144.3124 
    3290    143.89495   -11.831549            0   -11.813094    2069.3056 
    3300    141.03036   -11.831181            0   -11.813094    1975.4076 
    3310    138.67946    -11.83088            0   -11.813094    1861.3382 
    3320    136.98015   -11.830662            0   -11.813094    1753.9558 
    3330    136.03003    -11.83054            0   -11.813094    1640.5919 
    3340    135.86766   -11.830519            0   -11.813094    1535.8965 
    3350    136.47363   -11.830597            0   -11.813094    1459.7614 
    3360    137.77987   -11.830765            0   -11.813094    1386.9223 
    3370    139.66142   -11.831006            0   -11.813094     1335.522 
    3380    141.94006   -11.831298            0   -11.813094    1327.7643 
    3390    144.39535   -11.831613            0   -11.813094    1348.9373 
    3400    146.79945   -11.831921            0   -11.813094    1384.4233 
    3410    148.92943   -11.832195            0   -11.813094      1439.74 
    3420    150.57235   -11.832405            0   -11.813094    1525.6902 
    3430    151.56152   -11.832532            0   -11.813094    1630.2398 
    3440    151.78977   -11.832561            0   -11.813094    1751.3915 
    3450    151.22414   -11.832489            0   -11.813094    1883.3221 
    3460    149.89779   -11.832319            0   -11.813094    1999.1514 
    3470     147.9232   -11.832066            0   -11.813094    2077.0601 
    3480    145.48883   -11.831753            0   -11.813094    2117.0918 
    3490    142.83592   -11.831413            0   -11.813094    2118.0397 
    3500    140.24103    -11.83108            0   -11.813094     2060.879 
    3510    138.00697   -11.830794            0   -11.813094    1976.5573 
    3520    136.41589    -11.83059            0   -11.813094    1871.7403 
    3530    135.70201   -11.830498            0   -11.813094    1724.9103 
    3540     136.0322    -11.83054            0   -11.813094    1564.3137 
    3550    137.46099   -11.830724            0   -11.813094    1382.0842 
    3560    139.96745   -11.831045            0   -11.813094    1197.5653 
    3570    143.44996   -11.831492            0   -11.813094    1032.9822 
    3580    147.71436   -11.832039            0   -11.813094    898.58637 
    3590    152.48324    -11.83265            0   -11.813094    771.81483 
    3600    157.43342   -11.833285            0   -11.813094    674.58088 
    3610    162.21438   -11.833898            0   -11.813094     638.0787 
    3620    166.45359   -11.834442            0   -11.813094    666.17161 
    3630    169.79243    -11.83487            0   -11.813094    734.99804 
    3640    171.93483   -11.835145            0   -11.813094    831.85853 
    3650    172.66949   -11.835239            0   -11.813094    950.75541 
    3660    171.90185   -11.835141            0   -11.813094    1096.4763 
    3670    169.63724    -11.83485            0   -11.813094    1255.4468 
    3680     165.9694    -11.83438            0   -11.813094    1440.8649 
    3690    161.13229    -11.83376            0   -11.813094    1642.2929 
    3700    155.45875   -11.833032            0   -11.813094    1842.4281 
    3710    149.36264    -11.83225            0   -11.813094    2009.8268 
    3720    143.29518   -11.831472            0   -11.813094    2163.5608 
    3730    137.69201   -11.830753            0   -11.813094    2266.8514 
    3740    132.95692   -11.830146            0   -11.813094    2336.6929 
    3750    129.42893   -11.829693            0   -11.813094    2377.9099 
    3760     127.3596   -11.829428            0   -11.813094    2365.1563 
    3770    126.87932   -11.829366            0   -11.813094    2301.1067 
    3780    127.98848   -11.829509            0   -11.813094    2179.5086 
    3790     130.5511   -11.829837            0   -11.813094    2049.1194 
    3800    134.32357   -11.830321            0   -11.813094    1907.3885 
    3810    138.97463   -11.830918            0   -11.813094    1770.1691 
    3820    144.10204   -11.831575            0   -11.813094    1637.3357 
    3830    149.28095    -11.83224            0   -11.813094    1503.1844 
    3840    154.09458   -11.832857            0   -11.813094     1383.744 
    3850    158.15848   -11.833378            0   -11.813094    1293.0216 
    3860    161.15639   -11.833763            0   -11.813094    1235.8527 
    3870    162.84944    -11.83398            0   -11.813094      1204.48 
    3880     163.1148   -11.834014            0   -11.813094    1196.6004 
    3890    161.95796   -11.833866            0   -11.813094    1189.4162 
    3900    159.49132   -11.833549            0   -11.813094     1231.477 
    3910    155.95709   -11.833096            0   -11.813094    1304.0708 
    3920    151.68384   -11.832548            0   -11.813094     1383.651 
    3930    147.05763   -11.831954            0   -11.813094    1453.3135 
    3940    142.49603   -11.831369            0   -11.813094    1534.0897 
    3950    138.43308   -11.830848            0   -11.813094    1609.9581 
    3960      135.257   -11.830441            0   -11.813094    1664.2313 
    3970    133.26372   -11.830185            0   -11.813094    1713.0991 
    3980    132.66676   -11.830109            0   -11.813094    1758.5823 
    3990    133.56625   -11.830224            0   -11.813094    1793.5992 
    4000    135.92407   -11.830526            0   -11.813094    1835.8606 
    4010    139.56451   -11.830993            0   -11.813094    1865.4832 
    4020    144.19269   -11.831587            0   -11.813094    1908.5698 
    4030    149.43224   -11.832259            0   -11.813094    1950.2038 
    4040    154.84106   -11.832953            0   -11.813094    1956.8159 
    4050    159.95756   -11.833609            0   -11.813094      1931.82 
    4060    164.34345   -11.834171            0   -11.813094    1881.7717 
    4070    167.64256   -11.834595            0   -11.813094    1839.0126 
    4080    169.58711   -11.834844            0   -11.813094    1807.7245 
    4090    170.02377     -11.8349            0   -11.813094    1798.1594 
    4100     168.9351    -11.83476            0   -11.813094    1811.3487 
    4110    166.43467    -11.83444            0   -11.813094    1803.4416 
    4120     162.7525   -11.833967            0   -11.813094    1800.9263 
    4130    158.20648   -11.833384            0   -11.813094    1790.1671 
    4140    153.18584    -11.83274            0   -11.813094    1767.7359 
    4150    148.13085   -11.832092            0   -11.813094    1730.6219 
    4160    143.46814   -11.831494            0   -11.813094    1679.2029 
    4170    139.58155   -11.830996            0   -11.813094    1632.9277 
    4180    136.79289   -11.830638            0   -11.813094    1584.7115 
    4190    135.33617   -11.830451            0   -11.813094    1534.9156 
    4200    135.32723    -11.83045            0   -11.813094    1485.7482 
    4210    136.74858   -11.830632            0   -11.813094    1453.9688 
    4220    139.45183   -11.830979            0   -11.813094    1430.7908 
    4230    143.17092   -11.831456            0   -11.813094    1397.5062 
    4240    147.56266   -11.832019            0   -11.813094    1373.8624 
    4250    152.22087   -11.832617            0   -11.813094    1345.5834 
    4260    156.71513   -11.833193            0   -11.813094    1336.2554 
    4270    160.60318   -11.833692            0   -11.813094    1343.5468 
    4280    163.48767   -11.834062            0   -11.813094    1384.5358 
    4290    165.04189   -11.834261            0   -11.813094    1443.1295 
    4300    165.04064   -11.834261            0   -11.813094    1508.0961 
    4310    163.41654   -11.834053            0   -11.813094    1561.4825 
    4320    160.21246   -11.833642            0   -11.813094    1592.6631 
    4330    155.60604   -11.833051            0   -11.813094    1640.4985 
    4340    149.90467    -11.83232            0   -11.813094    1689.9707 
    4350    143.50811   -11.831499            0   -11.813094    1722.6535 
    4360    136.87917   -11.830649            0   -11.813094    1707.5551 
    4370    130.52094   -11.829834            0   -11.813094    1661.0223 
    4380    124.91805   -11.829115            0   -11.813094     1600.336 
    4390    120.49559   -11.828548            0   -11.813094    1537.6907 
    4400    117.60044   -11.828176            0   -11.813094    1470.6352 
    4410    116.46623   -11.828031            0   -11.813094    1411.8306 
    4420    117.19046   -11.828124            0   -11.813094    1358.2901 
    4430    119.72539   -11.828449            0   -11.813094    1318.6302 
    4440    123.89434   -11.828984            0   -11.813094     1286.331 
    4450    129.40409    -11.82969            0   -11.813094     1284.044 
    4460    135.87125    -11.83052            0   -11.813094    1314.6603 
    4470    142.85571   -11.831416            0   -11.813094    1362.8233 
    4480    149.88749   -11.832317            0   -11.813094    1426.7517 
    4490    156.51236   -11.833167            0   -11.813094    1520.1698 
    4500    162.32415   -11.833912            0   -11.813094    1646.5089 
    4510    166.97819   -11.834509            0   -11.813094    1777.0986 
    4520    170.24381   -11.834928            0   -11.813094    1906.7705 
    4530    171.99805   -11.835153            0   -11.813094    2033.6823 
    4540    172.23821   -11.835184            0   -11.813094    2156.1364 
    4550    171.07679   -11.835035            0   -11.813094    2255.5266 
    4560    168.73252   -11.834734            0   -11.813094    2324.2492 
    4570    165.52141   -11.834322            0   -11.813094    2352.3852 
    4580    161.79596   -11.833845            0   -11.813094    2350.3217 
    4590    157.93163   -11.833349            0   -11.813094    2331.7423 
    4600    154.28185   -11.832881            0   -11.813094    2259.9665 
    4610    151.16995   -11.832482            0   -11.813094    2141.3023 
    4620    148.85168   -11.832184            0   -11.813094    2005.8788 
    4630    147.48323   -11.832009            0   -11.813094     1861.399 
    4640    147.12469   -11.831963            0   -11.813094    1707.9144 
    4650    147.73353   -11.832041            0   -11.813094    1560.9379 
    4660    149.17948   -11.832227            0   -11.813094    1419.2696 
    4670    151.26315   -11.832494            0   -11.813094    1288.6225 
    4680    153.73373   -11.832811            0   -11.813094    1187.1972 
    4690    156.32131   -11.833143            0   -11.813094    1100.5955 
    4700    158.75266   -11.833454            0   -11.813094    1045.4874 
    4710    160.79024   -11.833716            0   -11.813094    986.03965 
    4720    162.23482   -11.833901            0   -11.813094    950.52658 
    4730    162.92963    -11.83399            0   -11.813094    921.89636 
    4740    162.77962   -11.833971            0   -11.813094     891.6141 
    4750    161.73724   -11.833837            0   -11.813094    876.14526 
    4760    159.81307    -11.83359            0   -11.813094    899.51477 
    4770    157.06368   -11.833238            0   -11.813094    935.38968 
    4780     153.5894   -11.832792            0   -11.813094    1008.2141 
    4790    149.53349   -11.832272            0   -11.813094    1122.7715 
    4800    145.05964   -11.831698            0   -11.813094    1248.0701 
    4810    140.36781   -11.831096            0   -11.813094    1395.1601 
    4820    135.66707   -11.830494            0   -11.813094    1584.5875 
    4830    131.17463   -11.829917            0   -11.813094    1789.6275 
    4840    127.09766   -11.829395            0   -11.813094    1953.4408 
    4850    123.63289    -11.82895            0   -11.813094    2086.8149 
    4860    120.95655   -11.828607            0   -11.813094    2212.1483 
    4870    119.21375   -11.828383            0   -11.813094    2322.3687 
    4880    118.52118   -11.828295            0   -11.813094     2406.495 
    4890    118.94703   -11.828349            0   -11.813094    2471.8192 
    4900    120.51282    -11.82855            0   -11.813094    2498.0789 
    4910    123.19958   -11.828895            0   -11.813094    2468.2639 
    4920    126.94388   -11.829375            0   -11.813094    2393.6714 
    4930    131.64122   -11.829977            0   -11.813094    2275.0035 
    4940    137.14887   -11.830684            0   -11.813094    2125.4778 
    4950    143.28689   -11.831471            0   -11.813094     1949.844 
    4960    149.85208   -11.832313            0   -11.813094    1759.4453 
    4970    156.63017   -11.833182            0   -11.813094    1566.6401 
    4980    163.39729    -11.83405            0   -11.813094    1362.8508 
    4990     169.9034   -11.834884            0   -11.813094    1179.7928 
    5000    175.90686   -11.835654            0   -11.813094    1047.5941 
    5010    181.16565   -11.836329            0   -11.813094    960.39317 
    5020    185.44777   -11.836878            0   -11.813094    937.88275 
    5030    188.52929   -11.837273            0   -11.813094    949.12114 
    5040    190.20121   -11.837488            0   -11.813094    969.80942 
    5050    190.30623   -11.837501            0   -11.813094    1030.8993 
    5060    188.73027   -11.837299            0   -11.813094    1095.3474 
    5070    185.44984   -11.836878            0   -11.813094    1175.3998 
    5080    180.51942   -11.836246            0   -11.813094    1286.9775 
    5090    174.05775   -11.835417            0   -11.813094    1412.6388 
    5100    166.27038   -11.834419            0   -11.813094    1525.1674 
    5110    157.42859   -11.833285            0   -11.813094    1654.3991 
    5120    147.86731   -11.832058            0   -11.813094    1785.6997 
    5130    138.00008   -11.830793            0   -11.813094    1900.6039 
    5140    128.28216   -11.829546            0   -11.813094    1999.7105 
    5150    119.18124   -11.828379            0   -11.813094    2086.4368 
    5160    111.14845   -11.827349            0   -11.813094    2146.5785 
    5170     104.5911   -11.826508            0   -11.813094    2184.6254 
    5180    99.858114   -11.825901            0   -11.813094    2185.6528 
    5190    97.226714   -11.825563            0   -11.813094    2139.3479 
    5200    96.863538   -11.825517            0   -11.813094    2060.0379 
    5210    98.809474   -11.825766            0   -11.813094    1953.7535 
    5220    102.97191     -11.8263            0   -11.813094    1836.6663 
    5230    109.14014   -11.827091            0   -11.813094    1707.2026 
    5240    116.99842   -11.828099            0   -11.813094    1575.3386 
    5250    126.14209   -11.829272            0   -11.813094      1473.47 
    5260    136.09891   -11.830549            0   -11.813094    1393.1601 
    5270    146.37985   -11.831868            0   -11.813094    1334.7202 
    5280     156.4995   -11.833165            0   -11.813094    1312.6478 
    5290    166.00644   -11.834385            0   -11.813094    1318.6725 
    5300    174.49407   -11.835473            0   -11.813094    1339.9749 
    5310    181.64282    -11.83639            0   -11.813094    1383.1442 
    5320    187.22026   -11.837105            0   -11.813094    1449.1207 
    5330    191.08466   -11.837601            0   -11.813094    1534.7228 
    5340    193.20918   -11.837874            0   -11.813094    1615.6903 
    5350     193.6749   -11.837933            0   -11.813094    1694.1093 
    5360     192.6344     -11.8378            0   -11.813094    1783.9137 
    5370     190.2759   -11.837497            0   -11.813094    1842.3534 
    5380     186.8048   -11.837052            0   -11.813094    1855.6022 
    5390    182.45465   -11.836494            0   -11.813094    1845.7072 
    5400      177.469   -11.835855            0   -11.813094    1810.2375 
    5410    172.07669   -11.835163            0   -11.813094    1760.4887 
    5420     166.4553   -11.834442            0   -11.813094     1680.263 
    5430    160.75043   -11.833711            0   -11.813094    1587.9656 
    5440    155.04627   -11.832979            0   -11.813094     1530.662 
    5450    149.40373   -11.832255            0   -11.813094    1515.2158 
    5460    143.86082   -11.831544            0   -11.813094    1517.3959 
    5470    138.44358    -11.83085            0   -11.813094    1549.1373 
    5480    133.17926   -11.830175            0   -11.813094    1597.6492 
    5490    128.11092   -11.829525            0   -11.813094    1641.9034 
    5500    123.32208    -11.82891            0   -11.813094    1681.6277 
    5510    118.94654   -11.828349            0   -11.813094    1715.8747 
    5520    115.15484   -11.827863            0   -11.813094     1756.279 
    5530    112.14949   -11.827477            0   -11.813094    1786.6913 
    5540     110.1493   -11.827221            0   -11.813094    1809.1216 
    5550    109.36151    -11.82712            0   -11.813094    1820.5241 
    5560    109.96337   -11.827197            0   -11.813094    1807.8986 
    5570    112.09048    -11.82747            0   -11.813094    1776.4738 
    5580    115.80625   -11.827946            0   -11.813094    1713.3944 
    5590    121.07994   -11.828623            0   -11.813094     1638.054 
    5600    127.77512   -11.829481            0   -11.813094     1539.717 
    5610    135.64718   -11.830491            0   -11.813094    1445.9028 
    5620    144.35623   -11.831608            0   -11.813094    1367.6813 
    5630    153.48606   -11.832779            0   -11.813094     1301.144 
    5640    162.54078    -11.83394            0   -11.813094    1227.4671 
    5650     170.9946   -11.835024            0   -11.813094    1193.9078 
    5660    178.34511   -11.835967            0   -11.813094    1176.4496 
    5670    184.12013   -11.836708            0   -11.813094    1161.3794 
    5680     187.9227   -11.837196            0   -11.813094    1158.4915 
    5690     189.4617   -11.837393            0   -11.813094    1161.7023 
    5700    188.58704   -11.837281            0   -11.813094    1193.4082 
    5710     185.3156   -11.836861            0   -11.813094    1241.0458 
    5720    179.79474   -11.836153            0   -11.813094    1303.0748 
    5730      172.309   -11.835193            0   -11.813094    1349.9238 
    5740     163.3009   -11.834038            0   -11.813094    1411.5898 
    5750    153.33138   -11.832759            0   -11.813094    1476.2756 
    5760    143.03457   -11.831438            0   -11.813094    1554.9551 
    5770    133.08894   -11.830163            0   -11.813094    1623.0944 
    5780    124.15808   -11.829017            0   -11.813094    1704.5364 
    5790    116.86122   -11.828082            0   -11.813094    1787.9819 
    5800    111.71278   -11.827421            0   -11.813094     1868.013 
    5810    109.07176   -11.827083            0   -11.813094    1924.4927 
    5820    109.12394   -11.827089            0   -11.813094    1958.3403 
    5830    111.87003   -11.827441            0   -11.813094    1972.5468 
    5840    117.14443   -11.828118            0   -11.813094    1967.5314 
    5850    124.60353   -11.829075            0   -11.813094    1943.2045 
    5860    133.75569   -11.830248            0   -11.813094    1897.2808 
    5870    143.99811   -11.831562            0   -11.813094    1850.9573 
    5880    154.65015   -11.832928            0   -11.813094      1809.97 
    5890    165.01332   -11.834257            0   -11.813094    1762.1792 
    5900    174.40076   -11.835461            0   -11.813094    1719.0769 
    5910    182.19852   -11.836461            0   -11.813094    1711.2148 
    5920    187.90947   -11.837194            0   -11.813094    1723.6191 
    5930    191.17581   -11.837613            0   -11.813094    1735.5185 
    5940    191.78775   -11.837691            0   -11.813094    1744.2011 
    5950    189.74794    -11.83743            0   -11.813094    1747.0183 
    5960    185.24098   -11.836852            0   -11.813094     1742.936 
    5970    178.61953   -11.836002            0   -11.813094    1717.1965 
    5980    170.40314   -11.834949            0   -11.813094    1701.1853 
    5990    161.21179    -11.83377            0   -11.813094    1694.0773 
    6000    151.70828   -11.832551            0   -11.813094    1678.3534 
    6010    142.55494   -11.831377            0   -11.813094    1680.2906 
    6020     134.3548   -11.830325            0   -11.813094     1668.756 
    6030    127.62924   -11.829463            0   -11.813094    1658.9537 
    6040    122.77715    -11.82884            0   -11.813094    1659.6714 
    6050    120.03069   -11.828488            0   -11.813094    1653.7113 
    6060    119.44939   -11.828414            0   -11.813094     1628.471 
    6070    120.93195   -11.828604            0   -11.813094    1590.3539 
    6080    124.21486   -11.829025            0   -11.813094    1544.8147 
    6090    128.90786   -11.829627            0   -11.813094    1500.0103 
    6100     134.5247   -11.830347            0   -11.813094    1452.8147 
    6110    140.55591   -11.831121            0   -11.813094    1424.5747 
    6120    146.48807   -11.831881            0   -11.813094    1420.8632 
    6130    151.84149   -11.832568            0   -11.813094    1414.1619 
    6140    156.22055    -11.83313            0   -11.813094    1444.1628 
    6150    159.34152    -11.83353            0   -11.813094    1489.7305 
    6160    161.04112   -11.833748            0   -11.813094    1556.7768 
    6170    161.29031    -11.83378            0   -11.813094    1646.2575 
    6180    160.18939   -11.833639            0   -11.813094    1742.6205 
    6190    157.93704    -11.83335            0   -11.813094     1824.069 
    6200    154.82014    -11.83295            0   -11.813094    1884.0172 
    6210    151.16214   -11.832481            0   -11.813094    1928.0775 
    6220    147.31118   -11.831987            0   -11.813094    1960.2469 
    6230    143.62013   -11.831514            0   -11.813094    1994.4304 
    6240    140.41676   -11.831103            0   -11.813094    2006.6738 
    6250    137.96537   -11.830788            0   -11.813094    2018.9772 
    6260    136.45308   -11.830594            0   -11.813094    2009.3033 
    6270    136.00079   -11.830536            0   -11.813094    1990.9146 
    6280    136.63278   -11.830617            0   -11.813094    1963.1064 
    6290    138.28337   -11.830829            0   -11.813094    1895.3898 
    6300    140.80637   -11.831153            0   -11.813094    1831.2936 
    6310    144.00152   -11.831562            0   -11.813094    1785.1288 
    6320    147.62648   -11.832027            0   -11.813094    1736.7936 
    6330    151.42246   -11.832514            0   -11.813094     1690.586 
    6340    155.12899    -11.83299            0   -11.813094     1644.492 
    6350    158.50154   -11.833422            0   -11.813094    1594.0891 
    6360    161.33162   -11.833785            0   -11.813094    1536.9727 
    6370    163.44588   -11.834056            0   -11.813094    1455.9831 
    6380    164.75708   -11.834224            0   -11.813094    1379.3853 
    6390    165.24397   -11.834287            0   -11.813094    1323.7953 
    6400    164.94111   -11.834248            0   -11.813094    1271.4818 
    6410    163.92801   -11.834118            0   -11.813094    1238.4693 
    6420     162.3279   -11.833913            0   -11.813094    1204.6526 
    6430     160.2986   -11.833653            0   -11.813094    1174.0892 
    6440    157.99883   -11.833358            0   -11.813094    1167.4538 
    6450    155.58168   -11.833048            0   -11.813094     1185.343 
    6460    153.18326    -11.83274            0   -11.813094     1205.896 
    6470    150.91043   -11.832449            0   -11.813094    1243.5104 
    6480    148.82591   -11.832181            0   -11.813094    1304.4761 
    6490    146.94472    -11.83194            0   -11.813094     1388.544 
    6500    145.24559   -11.831722            0   -11.813094    1503.8034 
    6510    143.68634   -11.831522            0   -11.813094    1629.8091 
    6520    142.21145   -11.831333            0   -11.813094     1752.606 
    6530    140.75364   -11.831146            0   -11.813094     1881.947 
    6540    139.26537   -11.830955            0   -11.813094    2016.1405 
    6550    137.71381   -11.830756            0   -11.813094    2132.3937 
    6560     136.1065    -11.83055            0   -11.813094    2233.5188 
    6570    134.48399   -11.830342            0   -11.813094    2319.3221 
    6580    132.93195   -11.830143            0   -11.813094     2371.092 
    6590    131.55823   -11.829967            0   -11.813094    2385.2419 
    6600    130.48915    -11.82983            0   -11.813094    2367.0602 
    6610    129.86769    -11.82975            0   -11.813094    2309.5764 
    6620    129.84534   -11.829747            0   -11.813094    2228.2157 
    6630    130.54687   -11.829837            0   -11.813094    2146.0079 
    6640    132.05536    -11.83003            0   -11.813094    2040.5599 
    6650    134.41427   -11.830333            0   -11.813094    1941.2249 
    6660    137.62438   -11.830745            0   -11.813094    1833.5673 
    6670    141.63885   -11.831259            0   -11.813094    1738.6991 
    6680    146.34955   -11.831864            0   -11.813094    1644.8402 
    6690     151.6047   -11.832538            0   -11.813094    1547.4965 
    6700    157.20886   -11.833256            0   -11.813094    1477.1529 
    6710    162.90685   -11.833987            0   -11.813094    1422.3138 
    6720    168.39459   -11.834691            0   -11.813094     1365.576 
    6730    173.36169   -11.835328            0   -11.813094    1338.9771 
    6740    177.52426   -11.835862            0   -11.813094      1315.59 
    6750    180.62877    -11.83626            0   -11.813094    1302.2045 
    6760    182.46687   -11.836496            0   -11.813094    1283.5269 
    6770    182.90596   -11.836552            0   -11.813094    1274.9705 
    6780    181.89149   -11.836422            0   -11.813094    1264.3871 
    6790    179.47116   -11.836112            0   -11.813094    1240.1198 
    6800     175.7519   -11.835635            0   -11.813094    1180.7311 
    6810    170.94112   -11.835018            0   -11.813094    1118.3037 
    6820    165.31408   -11.834296            0   -11.813094    1064.4648 
    6830    159.18033   -11.833509            0   -11.813094    1033.8512 
    6840    152.85634   -11.832698            0   -11.813094    1030.5916 
    6850    146.64723   -11.831902            0   -11.813094    1057.3962 
    6860    140.82954   -11.831156            0   -11.813094    1125.6348 
    6870    135.63016   -11.830489            0   -11.813094    1210.6537 
    6880    131.21868   -11.829923            0   -11.813094    1298.6316 
    6890    127.69396   -11.829471            0   -11.813094    1406.9814 
    6900     125.1115    -11.82914            0   -11.813094     1534.311 
    6910    123.48349   -11.828931            0   -11.813094    1692.8507 
    6920    122.76748   -11.828839            0   -11.813094    1856.4763 
    6930    122.88691   -11.828855            0   -11.813094    2022.9352 
    6940    123.73241   -11.828963            0   -11.813094     2162.212 
    6950    125.18038   -11.829149            0   -11.813094    2254.0138 
    6960    127.10364   -11.829395            0   -11.813094    2315.3573 
    6970    129.37105   -11.829686            0   -11.813094     2324.261 
    6980    131.86668   -11.830006            0   -11.813094    2284.3382 
    6990     134.4831   -11.830342            0   -11.813094    2198.6412 
    7000    137.12911   -11.830681            0   -11.813094    2067.6757 
    7010    139.74788   -11.831017            0   -11.813094     1915.905 
    7020    142.29951   -11.831344            0   -11.813094    1764.0036 
    7030     144.7697   -11.831661            0   -11.813094    1611.5628 
    7040     147.1634   -11.831968            0   -11.813094    1470.2694 
    7050    149.49521   -11.832267            0   -11.813094    1354.3536 
    7060    151.78726   -11.832561            0   -11.813094    1224.4758 
    7070    154.05838   -11.832852            0   -11.813094    1132.2809 
    7080    156.32923   -11.833144            0   -11.813094    1059.5555 
    7090    158.62139   -11.833438            0   -11.813094    1037.4774 
    7100    160.92233   -11.833733            0   -11.813094    1061.9447 
    7110    163.16776   -11.834021            0   -11.813094    1128.2887 
    7120    165.25261   -11.834288            0   -11.813094    1209.4725 
    7130    167.07572   -11.834522            0   -11.813094    1270.9753 
    7140    168.53025   -11.834708            0   -11.813094     1338.199 
    7150    169.48478   -11.834831            0   -11.813094    1413.9603 
    7160    169.81662   -11.834873            0   -11.813094    1504.1823 
    7170    169.42869   -11.834824            0   -11.813094    1604.3362 
    7180    168.23335    -11.83467            0   -11.813094    1695.6278 
    7190    166.19517   -11.834409            0   -11.813094    1778.0189 
    7200    163.33226   -11.834042            0   -11.813094    1853.2816 
    7210    159.70566   -11.833577            0   -11.813094    1901.3691 
    7220    155.44356    -11.83303            0   -11.813094    1942.9852 
    7230    150.71548   -11.832424            0   -11.813094    1987.5068 
    7240    145.72569   -11.831784            0   -11.813094    2007.2327 
    7250    140.71055    -11.83114            0   -11.813094    1994.1241 
    7260    135.92366   -11.830526            0   -11.813094    1962.1251 
    7270    131.61069   -11.829973            0   -11.813094    1926.5167 
    7280    127.99101   -11.829509            0   -11.813094    1887.5956 
    7290    125.25747   -11.829159            0   -11.813094     1843.666 
    7300    123.57315   -11.828942            0   -11.813094    1791.8303 
    7310    123.04834   -11.828875            0   -11.813094    1755.7992 
    7320     123.7306   -11.828963            0   -11.813094    1726.8015 
    7330    125.60789   -11.829203            0   -11.813094    1698.8949 
    7340    128.61279   -11.829589            0   -11.813094    1681.0905 
    7350    132.61595   -11.830102            0   -11.813094    1659.9074 
    7360      137.446   -11.830722            0   -11.813094    1608.4666 
    7370    142.88115   -11.831419            0   -11.813094    1555.1017 
    7380    148.67525   -11.832162            0   -11.813094     1510.665 
    7390    154.57041   -11.832918            0   -11.813094    1459.6049 
    7400    160.30604   -11.833654            0   -11.813094    1398.7567 
    7410     165.6256   -11.834336            0   -11.813094    1338.0934 
    7420    170.30075   -11.834935            0   -11.813094    1302.8533 
    7430    174.14762   -11.835429            0   -11.813094    1280.3578 
    7440    177.03697   -11.835799            0   -11.813094    1272.6146 
    7450    178.88004   -11.836036            0   -11.813094    1281.2437 
    7460     179.6321   -11.836132            0   -11.813094    1278.1647 
    7470     179.3112   -11.836091            0   -11.813094    1273.0969 
    7480    177.98252   -11.835921            0   -11.813094    1288.4837 
    7490    175.72763   -11.835631            0   -11.813094    1298.7299 
    7500    172.63999   -11.835235            0   -11.813094     1329.831 
    7510    168.81618   -11.834745            0   -11.813094    1376.7653 
    7520    164.36921   -11.834175            0   -11.813094    1426.3275 
    7530    159.41022   -11.833539            0   -11.813094    1497.3331 
    7540    154.04404   -11.832851            0   -11.813094    1590.2573 
    7550    148.37878   -11.832124            0   -11.813094    1707.2298 
    7560    142.51322   -11.831372            0   -11.813094    1831.1946 
    7570    136.56599   -11.830609            0   -11.813094    1931.4263 
    7580    130.68016   -11.829854            0   -11.813094    2028.7311 
    7590    125.00734   -11.829126            0   -11.813094    2083.8285 
    7600      119.713   -11.828447            0   -11.813094    2111.3743 
    7610    114.97139   -11.827839            0   -11.813094    2115.9732 
    7620    110.97034   -11.827326            0   -11.813094    2084.4965 
    7630    107.91187   -11.826934            0   -11.813094     2023.711 
    7640    105.98346   -11.826687            0   -11.813094    1956.2639 
    7650    105.34622   -11.826605            0   -11.813094    1888.3686 
    7660    106.12821   -11.826705            0   -11.813094    1804.0024 
    7670    108.42365      -11.827            0   -11.813094    1721.6446 
    7680    112.26513   -11.827492            0   -11.813094     1638.397 
    7690    117.62561    -11.82818            0   -11.813094    1575.8746 
    7700    124.40623   -11.829049            0   -11.813094    1518.9117 
    7710    132.42531   -11.830078            0   -11.813094    1471.4074 
    7720    141.42991   -11.831233            0   -11.813094    1425.0442 
    7730     151.0997   -11.832473            0   -11.813094    1399.2752 
    7740    161.04783   -11.833749            0   -11.813094    1404.5614 
    7750    170.85555   -11.835007            0   -11.813094    1424.6851 
    7760     180.0817    -11.83619            0   -11.813094      1469.22 
    7770    188.29139   -11.837243            0   -11.813094    1527.0839 
    7780    195.09163   -11.838115            0   -11.813094    1566.6975 
    7790    200.14338   -11.838763            0   -11.813094    1602.8743 
    7800    203.18762   -11.839153            0   -11.813094    1649.3672 
    7810     204.0747   -11.839267            0   -11.813094    1668.8608 
    7820    202.76562   -11.839099            0   -11.813094    1689.4215 
    7830     199.3413    -11.83866            0   -11.813094    1692.4536 
    7840    193.97279   -11.837971            0   -11.813094    1690.3355 
    7850    186.91834   -11.837067            0   -11.813094    1667.0704 
    7860    178.51268   -11.835989            0   -11.813094    1653.9724 
    7870    169.13962   -11.834787            0   -11.813094    1670.1027 
    7880    159.21868   -11.833514            0   -11.813094    1694.8573 
    7890    149.18547   -11.832227            0   -11.813094    1733.6876 
    7900    139.46437   -11.830981            0   -11.813094    1790.8451 
    7910    130.45679   -11.829825            0   -11.813094    1859.1017 
    7920    122.49834   -11.828805            0   -11.813094    1940.5858 
    7930    115.86935   -11.827954            0   -11.813094    2025.5006 
    7940    110.78448   -11.827302            0   -11.813094    2113.3856 
    7950    107.38979   -11.826867            0   -11.813094    2198.4465 
    7960    105.75834   -11.826658            0   -11.813094    2266.7258 
    7970    105.88328   -11.826674            0   -11.813094    2323.5203 
    7980    107.68115   -11.826904            0   -11.813094     2355.885 
    7990    111.01087   -11.827331            0   -11.813094    2354.8256 
    8000    115.66747   -11.827929            0   -11.813094    2322.1526 
    8010    121.39135   -11.828663            0   -11.813094    2252.9223 
    8020    127.89068   -11.829496            0   -11.813094    2151.1569 
    8030    134.86198    -11.83039            0   -11.813094    2008.9194 
    8040    142.00228   -11.831306            0   -11.813094     1867.979 
    8050    149.00836   -11.832205            0   -11.813094    1715.8524 
    8060    155.60824   -11.833051            0   -11.813094    1572.7872 
    8070     161.5708   -11.833816            0   -11.813094    1450.1858 
    8080    166.68559   -11.834472            0   -11.813094    1351.7693 
    8090    170.80458      -11.835            0   -11.813094    1251.1736 
    8100      173.808   -11.835385            0   -11.813094    1162.0732 
    8110    175.63209   -11.835619            0   -11.813094     1086.021 
    8120    176.29047   -11.835704            0   -11.813094    1029.8488 
    8130      175.827   -11.835644            0   -11.813094    1023.3885 
    8140    174.31742   -11.835451            0   -11.813094    1066.5105 
    8150    171.87158   -11.835137            0   -11.813094    1128.6733 
    8160    168.64359   -11.834723            0   -11.813094     1230.515 
    8170    164.79498   -11.834229            0   -11.813094    1331.9244 
    8180     160.4932   -11.833678            0   -11.813094    1419.6825 
    8190    155.92733   -11.833092            0   -11.813094    1512.9471 
    8200    151.28842   -11.832497            0   -11.813094    1614.8594 
    8210     146.7705   -11.831918            0   -11.813094    1710.8801 
    8220    142.56351   -11.831378            0   -11.813094    1760.9162 
    8230    138.83558     -11.8309            0   -11.813094    1773.0734 
    8240    135.74238   -11.830503            0   -11.813094    1769.9884 
    8250     133.4044   -11.830203            0   -11.813094    1755.1832 
    8260    131.90473   -11.830011            0   -11.813094    1708.0152 
    8270    131.28043   -11.829931            0   -11.813094    1642.7063 
    8280     131.5416   -11.829964            0   -11.813094    1554.9203 
    8290    132.67547    -11.83011            0   -11.813094    1459.7648 
    8300    134.61332   -11.830358            0   -11.813094    1380.9565 
    8310    137.23809   -11.830695            0   -11.813094    1344.9396 
    8320    140.38447   -11.831099            0   -11.813094    1313.1718 
    8330    143.84338   -11.831542            0   -11.813094    1325.0028 
    8340    147.38418   -11.831996            0   -11.813094    1347.8155 
    8350    150.77277   -11.832431            0   -11.813094    1359.1879 
    8360    153.78784   -11.832818            0   -11.813094    1388.5229 
    8370    156.22183    -11.83313            0   -11.813094    1415.0703 
    8380    157.89816   -11.833345            0   -11.813094    1435.0506 
    8390    158.69698   -11.833447            0   -11.813094    1463.8253 
    8400    158.54925   -11.833428            0   -11.813094    1490.0535 
    8410    157.46899    -11.83329            0   -11.813094    1529.1229 
    8420    155.52675   -11.833041            0   -11.813094    1579.1759 
    8430    152.85513   -11.832698            0   -11.813094    1610.4601 
    8440    149.65122   -11.832287            0   -11.813094    1613.8545 
    8450    146.17924   -11.831842            0   -11.813094    1616.6783 
    8460    142.72601   -11.831399            0   -11.813094    1617.4537 
    8470    139.58845   -11.830996            0   -11.813094    1615.9268 
    8480    137.03837   -11.830669            0   -11.813094     1620.168 
    8490    135.31867   -11.830449            0   -11.813094    1622.4154 
    8500    134.61533   -11.830359            0   -11.813094    1603.1389 
    8510    135.02997   -11.830412            0   -11.813094    1580.4633 
    8520    136.59308   -11.830612            0   -11.813094    1560.5797 
    8530     139.2625   -11.830955            0   -11.813094    1529.5047 
    8540    142.91836   -11.831424            0   -11.813094    1512.9263 
    8550    147.35842   -11.831993            0   -11.813094    1506.8741 
    8560    152.30119   -11.832627            0   -11.813094     1508.019 
    8570    157.41017   -11.833282            0   -11.813094    1526.2671 
    8580    162.34143   -11.833915            0   -11.813094    1558.1962 
    8590    166.75963   -11.834481            0   -11.813094    1600.3597 
    8600    170.35744   -11.834943            0   -11.813094    1628.4839 
    8610    172.87379   -11.835266            0   -11.813094    1658.5981 
    8620    174.09857   -11.835423            0   -11.813094    1659.8557 
    8630    173.93539   -11.835402            0   -11.813094    1657.4021 
    8640    172.37121   -11.835201            0   -11.813094    1653.0789 
    8650    169.47561    -11.83483            0   -11.813094    1659.3122 
    8660    165.40222   -11.834307            0   -11.813094    1674.2465 
    8670    160.39177   -11.833665            0   -11.813094    1704.2885 
    8680     154.7451    -11.83294            0   -11.813094    1757.3994 
    8690    148.79485   -11.832177            0   -11.813094    1821.4082 
    8700    142.89525   -11.831421            0   -11.813094    1888.5562 
    8710    137.40027   -11.830716            0   -11.813094    1939.2232 
    8720    132.64375   -11.830106            0   -11.813094    1961.0157 
    8730    128.91936   -11.829628            0   -11.813094    1956.1885 
    8740    126.45742   -11.829312            0   -11.813094    1948.0576 
    8750     125.4073   -11.829178            0   -11.813094    1944.5307 
    8760     125.8268   -11.829231            0   -11.813094    1924.2249 
    8770    127.66408   -11.829467            0   -11.813094    1878.4624 
    8780    130.77492   -11.829866            0   -11.813094    1827.8449 
    8790    134.92954   -11.830399            0   -11.813094    1756.3506 
    8800    139.83335   -11.831028            0   -11.813094     1671.327 
    8810    145.15042    -11.83171            0   -11.813094    1582.6825 
    8820    150.50946   -11.832397            0   -11.813094    1493.6697 
    8830    155.51282   -11.833039            0   -11.813094    1372.9499 
    8840    159.79874   -11.833589            0   -11.813094    1271.0374 
    8850    163.07606   -11.834009            0   -11.813094    1191.5355 
    8860    165.14685   -11.834275            0   -11.813094     1131.159 
    8870    165.90719   -11.834372            0   -11.813094    1072.6632 
    8880    165.34204     -11.8343            0   -11.813094    1016.2354 
    8890    163.51163   -11.834065            0   -11.813094    975.78427 
    8900    160.55148   -11.833685            0   -11.813094    934.25263 
    8910    156.67146   -11.833187            0   -11.813094    923.08635 
    8920     152.1436   -11.832607            0   -11.813094    947.76565 
    8930    147.27575   -11.831982            0   -11.813094    1004.5612 
    8940     142.3864   -11.831355            0   -11.813094    1103.8723 
    8950    137.78739   -11.830766            0   -11.813094    1226.2734 
    8960    133.77555   -11.830251            0   -11.813094    1338.0442 
    8970    130.60123   -11.829844            0   -11.813094     1450.317 
    8980    128.44959   -11.829568            0   -11.813094    1540.8713 
    8990    127.45381    -11.82944            0   -11.813094    1637.1094 
    9000    127.68158   -11.829469            0   -11.813094    1728.0049 
    9010    129.13002   -11.829655            0   -11.813094    1811.8401 
    9020     131.7176   -11.829987            0   -11.813094    1896.9145 
    9030    135.29093   -11.830445            0   -11.813094     1964.127 
    9040    139.63373   -11.831002            0   -11.813094    2012.4288 
    9050    144.49238   -11.831625            0   -11.813094    2054.9807 
    9060    149.58419   -11.832279            0   -11.813094    2069.9348 
    9070    154.60811   -11.832923            0   -11.813094    2052.3162 
    9080    159.25326   -11.833519            0   -11.813094    2012.9601 
    9090    163.25081   -11.834031            0   -11.813094     1961.231 
    9100    166.38423   -11.834433            0   -11.813094    1917.6758 
    9110    168.49157   -11.834703            0   -11.813094    1862.5574 
    9120    169.49012   -11.834832            0   -11.813094     1834.278 
    9130    169.37239   -11.834816            0   -11.813094    1817.9184 
    9140     168.2037   -11.834667            0   -11.813094    1816.4123 
    9150    166.11792   -11.834399            0   -11.813094    1788.8125 
    9160     163.3121   -11.834039            0   -11.813094    1734.2589 
    9170    160.04491    -11.83362            0   -11.813094    1674.3705 
    9180    156.60902   -11.833179            0   -11.813094    1606.9438 
    9190    153.27478   -11.832752            0   -11.813094    1551.8896 
    9200    150.27317   -11.832367            0   -11.813094    1503.6912 
    9210     147.7812   -11.832047            0   -11.813094    1451.7203 
    9220    145.90942   -11.831807            0   -11.813094    1400.4926 
    9230    144.70236   -11.831652            0   -11.813094     1350.079 
    9240    144.14142    -11.83158            0   -11.813094    1306.1942 
    9250    144.14862   -11.831581            0   -11.813094    1272.1779 
    9260    144.59761   -11.831639            0   -11.813094    1241.5867 
    9270    145.32287   -11.831732            0   -11.813094    1234.9232 
    9280    146.14465   -11.831837            0   -11.813094    1251.8472 
    9290    146.87878   -11.831932            0   -11.813094    1279.3336 
    9300    147.37091   -11.831995            0   -11.813094    1326.2011 
    9310    147.49945   -11.832011            0   -11.813094    1382.3012 
    9320    147.18078    -11.83197            0   -11.813094    1457.8746 
    9330    146.37985   -11.831868            0   -11.813094    1551.8768 
    9340    145.11502   -11.831705            0   -11.813094    1636.3343 
    9350    143.45558   -11.831493            0   -11.813094    1721.9877 
    9360    141.52142   -11.831244            0   -11.813094    1805.8156 
    9370    139.47308   -11.830982            0   -11.813094    1865.7806 
    9380    137.48675   -11.830727            0   -11.813094    1927.2451 
    9390     135.7425   -11.830503            0   -11.813094    1983.4073 
    9400    134.42159   -11.830334            0   -11.813094    2027.9408 
    9410    133.68578   -11.830239            0   -11.813094    2042.4388 
    9420    133.67561   -11.830238            0   -11.813094    2017.0256 
    9430    134.50596   -11.830345            0   -11.813094    1939.5489 
    9440    136.24337   -11.830567            0   -11.813094     1816.977 
    9450    138.89037   -11.830907            0   -11.813094    1665.7415 
    9460    142.38856   -11.831356            0   -11.813094    1500.5058 
    9470    146.62296   -11.831899            0   -11.813094    1337.3879 
    9480    151.41817   -11.832514            0   -11.813094    1165.2366 
    9490    156.55531   -11.833173            0   -11.813094    1008.9341 
    9500    161.76777   -11.833841            0   -11.813094    872.82704 
    9510    166.76386   -11.834482            0   -11.813094    788.76804 
    9520    171.25477   -11.835058            0   -11.813094    727.04165 
    9530    174.94977   -11.835532            0   -11.813094    710.81999 
    9540    177.59781   -11.835871            0   -11.813094    715.03973 
    9550    178.99533   -11.836051            0   -11.813094    774.93696 
    9560    178.98779    -11.83605            0   -11.813094    865.64054 
    9570     177.4981   -11.835859            0   -11.813094    987.73972 
    9580     174.5511   -11.835481            0   -11.813094    1144.7343 
    9590    170.25057   -11.834929            0   -11.813094    1344.1189 
    9600    164.76991   -11.834226            0   -11.813094    1578.3757 
    9610     158.3773   -11.833406            0   -11.813094     1835.457 
    9620    151.40917   -11.832513            0   -11.813094    2108.8982 
    9630    144.25503   -11.831595            0   -11.813094    2365.0835 
    9640    137.32329   -11.830706            0   -11.813094    2588.3739 
    9650    131.01678   -11.829897            0   -11.813094    2752.2429 
    9660    125.71983   -11.829218            0   -11.813094    2848.8351 
    9670     121.7495   -11.828709            0   -11.813094    2876.2787 
    9680    119.33563   -11.828399            0   -11.813094     2835.782 
    9690    118.58655   -11.828303            0   -11.813094     2714.264 
    9700    119.48781   -11.828419            0   -11.813094    2524.7858 
    9710     121.9081   -11.828729            0   -11.813094    2285.8738 
    9720     125.6152   -11.829204            0   -11.813094    2005.7755 
    9730    130.29091   -11.829804            0   -11.813094    1718.7804 
    9740     135.5506   -11.830479            0   -11.813094    1450.1396 
    9750    140.96782   -11.831173            0   -11.813094     1223.853 
    9760    146.09698   -11.831831            0   -11.813094    1030.2903 
    9770    150.52768     -11.8324            0   -11.813094    872.20528 
    9780    153.93565   -11.832837            0   -11.813094    774.37945 
    9790    156.08864   -11.833113            0   -11.813094    750.91769 
    9800    156.85811   -11.833211            0   -11.813094    784.92216 
    9810    156.23995   -11.833132            0   -11.813094    881.70839 
    9820    154.36656   -11.832892            0   -11.813094    1043.4073 
    9830    151.48583   -11.832522            0   -11.813094     1229.458 
    9840    147.92793   -11.832066            0   -11.813094    1438.6493 
    9850    144.09026   -11.831574            0   -11.813094     1632.161 
    9860    140.40294   -11.831101            0   -11.813094    1800.6306 
    9870    137.32173   -11.830706            0   -11.813094      1962.08 
    9880    135.26832   -11.830442            0   -11.813094    2095.7393 
    9890    134.57932   -11.830354            0   -11.813094    2194.4476 
    9900    135.51141   -11.830474            0   -11.813094    2265.4661 
    9910    138.19319   -11.830817            0   -11.813094    2282.1585 
    9920    142.61418   -11.831384            0   -11.813094    2282.0515 
    9930    148.61147   -11.832154            0   -11.813094    2271.9172 
    9940    155.87554   -11.833085            0   -11.813094    2252.5801 
    9950    163.96558   -11.834123            0   -11.813094    2223.2221 
    9960    172.33395   -11.835196            0   -11.813094    2168.5237 
    9970    180.38019   -11.836228            0   -11.813094    2066.5946 
    9980    187.49537   -11.837141            0   -11.813094    1955.0872 
    9990    193.11156   -11.837861            0   -11.813094    1838.8142 
   10000     196.7394   -11.838326            0   -11.813094    1700.4271 
Loop time of 4.02542 on 1 procs for 10000 steps with 128 atoms

Performance: 107.318 ns/day, 0.224 hours/ns, 2484.215 timesteps/s
85.0% CPU use with 1 MPI tasks x 1 OpenMP threads

MPI task timing breakdown:
Section |  min time  |  avg time  |  max time  |%varavg| %total
---------------------------------------------------------------
Pair    | 3.0895     | 3.0895     | 3.0895     |   0.0 | 76.75
Neigh   | 0          | 0          | 0          |   0.0 |  0.00
Comm    | 0.36903    | 0.36903    | 0.36903    |   0.0 |  9.17
Output  | 0.041377   | 0.041377   | 0.041377   |   0.0 |  1.03
Modify  | 0.20763    | 0.20763    | 0.20763    |   0.0 |  5.16
Other   |            | 0.3179     |            |       |  7.90

Nlocal:        128.000 ave         128 max         128 min
Histogram: 1 0 0 0 0 0 0 0 0 0
Nghost:        727.000 ave         727 max         727 min
Histogram: 1 0 0 0 0 0 0 0 0 0
Neighs:        3712.00 ave        3712 max        3712 min
Histogram: 1 0 0 0 0 0 0 0 0 0
FullNghs:      7424.00 ave        7424 max        7424 min
Histogram: 1 0 0 0 0 0 0 0 0 0

Total # of neighbors = 7424
Ave neighs/atom = 58.000000
Neighbor list builds = 0
Dangerous builds = 0
Total wall time: 0:00:06
