LAMMPS (2 Jul 2021)
KOKKOS mode is enabled (src/KOKKOS/kokkos.cpp:97)
  will use up to 1 GPU(s) per node
  using 1 OpenMP thread(s) per MPI task
Lattice spacing in x,y,z = 3.3160000 3.3160000 3.3160000
Created orthogonal box = (0.0000000 0.0000000 0.0000000) to (26.528000 26.528000 26.528000)
  1 by 1 by 1 MPI processor grid
Created 1024 atoms
  create_atoms CPU = 0.001 seconds
Reading potential file Ta06A.snapcoeff with DATE: 2014-09-05
SNAP Element = Ta, Radius 0.5, Weight 1
Reading potential file Ta06A.snapparam with DATE: 2014-09-05
SNAP keyword rcutfac 4.67637
SNAP keyword twojmax 6
SNAP keyword rfac0 0.99363
SNAP keyword rmin0 0
SNAP keyword bzeroflag 0
SNAP keyword quadraticflag 0
Neighbor list info ...
  update every 1 steps, delay 0 steps, check yes
  max neighbors/atom: 2000, page size: 100000
  master list distance cutoff = 5.8
  ghost atom cutoff = 5.8
  binsize = 5.8, bins = 5 5 5
  2 neighbor lists, perpetual/occasional/extra = 2 0 0
  (1) pair zbl, perpetual, half/full from (2)
      attributes: half, newton on, kokkos_device
      pair build: halffull/newton/kk/device
      stencil: none
      bin: none
  (2) pair snap, perpetual
      attributes: full, newton on, kokkos_device
      pair build: full/bin/kk/device
      stencil: full/bin/3d
      bin: kk/device
Setting up Verlet run ...
  Unit style    : metal
  Current step  : 0
  Time step     : 0.0005
Per MPI rank memory allocation (min/avg/max) = 6.641 | 6.641 | 6.641 Mbytes
Step Temp E_pair E_mol TotEng Press 
       0          300    -11.85157            0    -11.81283    2732.6968 
      10    296.02835   -11.851057            0    -11.81283    2714.2349 
      20    284.58681    -11.84958            0    -11.81283    2317.5087 
      30    266.62541    -11.84726            0    -11.81283    1869.2703 
      40    243.25783   -11.844242            0    -11.81283     1553.358 
      50     215.8652   -11.840705            0   -11.812829    1401.3652 
      60    186.04209   -11.836854            0   -11.812829    1400.1705 
      70    155.50016   -11.832909            0   -11.812829     1515.533 
      80    125.95849   -11.829094            0   -11.812829    1707.3886 
      90    99.031267   -11.825617            0   -11.812829    1935.7435 
     100    76.121751   -11.822659            0   -11.812829    2164.1776 
     110    58.330955   -11.820361            0   -11.812829    2360.1622 
     120    46.389428   -11.818819            0   -11.812829      2499.17 
     130    40.619321   -11.818074            0   -11.812829    2569.1674 
     140    40.930301   -11.818114            0   -11.812829    2563.1567 
     150    46.848977   -11.818879            0   -11.812829    2481.7448 
     160    57.577595   -11.820264            0   -11.812829    2337.0995 
     170     72.07328   -11.822136            0   -11.812829    2144.2357 
     180    89.141516    -11.82434            0   -11.812829    1924.0735 
     190     107.5311   -11.826715            0   -11.812829    1695.4109 
     200    126.02482   -11.829103            0   -11.812829    1480.3368 
     210    143.52134   -11.831363            0   -11.812829    1283.9426 
     220    159.09412   -11.833374            0   -11.812829    1117.6683 
     230    172.03344   -11.835045            0   -11.812829    987.78694 
     240    181.87538   -11.836316            0   -11.812829    899.00751 
     250    188.40476   -11.837159            0   -11.812829    851.87351 
     260    191.64482   -11.837577            0   -11.812829    845.22406 
     270    191.82629   -11.837601            0   -11.812829    876.38704 
     280    189.34341    -11.83728            0   -11.812829    934.45076 
     290    184.72135   -11.836683            0   -11.812829    1005.0602 
     300    178.56854   -11.835889            0   -11.812829    1080.8189 
     310    171.52093   -11.834978            0   -11.812829    1166.8382 
     320    164.20078   -11.834033            0   -11.812829    1262.1036 
     330    157.17328   -11.833126            0   -11.812829     1359.141 
     340    150.90942   -11.832317            0   -11.812829    1450.0352 
     350    145.76647   -11.831652            0   -11.812829    1525.9248 
     360    141.97469   -11.831163            0   -11.812829    1588.6053 
     370    139.63065    -11.83086            0   -11.812829    1631.9779 
     380     138.7029    -11.83074            0   -11.812829    1656.5187 
     390    139.04611   -11.830785            0   -11.812829    1662.1376 
     400    140.42809   -11.830963            0   -11.812829    1652.8508 
     410    142.54998   -11.831237            0   -11.812829    1628.3586 
     420    145.08045   -11.831564            0   -11.812829    1590.6189 
     430    147.68899   -11.831901            0   -11.812829     1548.221 
     440     150.0695   -11.832208            0   -11.812829    1503.8753 
     450    151.96328   -11.832453            0   -11.812829    1458.7811 
     460    153.17907    -11.83261            0   -11.812829    1420.4623 
     470    153.60118   -11.832664            0   -11.812829    1392.6604 
     480    153.19069   -11.832611            0   -11.812829    1381.6603 
     490    151.98958   -11.832456            0   -11.812829    1378.5677 
     500    150.10703   -11.832213            0   -11.812829    1385.5338 
     510     147.7076   -11.831903            0   -11.812829    1406.6661 
     520    144.99435   -11.831553            0   -11.812829    1439.6703 
     530    142.19158   -11.831191            0   -11.812829    1475.9753 
     540    139.52871   -11.830847            0   -11.812829    1514.6197 
     550    137.22009   -11.830549            0   -11.812829    1557.8498 
     560    135.45818   -11.830321            0   -11.812829    1592.2807 
     570    134.39876   -11.830185            0   -11.812829    1611.0637 
     580    134.14397   -11.830152            0   -11.812829    1616.4651 
     590    134.74265   -11.830229            0   -11.812829      1602.23 
     600    136.19335   -11.830416            0   -11.812829    1572.4008 
     610    138.44508   -11.830707            0   -11.812829    1532.9281 
     620    141.39771   -11.831088            0   -11.812829    1487.3366 
     630    144.90606   -11.831541            0   -11.812829    1428.9158 
     640    148.79386   -11.832044            0   -11.812829    1365.0064 
     650    152.86227   -11.832569            0   -11.812829    1291.2918 
     660    156.89623    -11.83309            0   -11.812829    1221.5142 
     670    160.67448   -11.833578            0   -11.812829     1165.848 
     680    163.98846   -11.834006            0   -11.812829    1116.4373 
     690    166.64786   -11.834349            0   -11.812829     1075.031 
     700    168.49545   -11.834588            0   -11.812829    1053.9035 
     710    169.41463   -11.834706            0   -11.812829    1051.7741 
     720    169.33155   -11.834696            0   -11.812829    1065.2531 
     730    168.22513   -11.834553            0   -11.812829    1094.9823 
     740    166.12842   -11.834282            0   -11.812829    1138.9267 
     750    163.12496   -11.833894            0   -11.812829    1194.5436 
     760    159.34384   -11.833406            0   -11.812829    1267.8797 
     770     154.9564   -11.832839            0   -11.812829    1340.8913 
     780    150.17393   -11.832222            0   -11.812829    1417.8297 
     790    145.23903   -11.831584            0   -11.812829    1495.2785 
     800    140.40945   -11.830961            0   -11.812829    1578.5109 
     810    135.94394   -11.830384            0   -11.812829    1659.4548 
     820    132.08649   -11.829886            0   -11.812829    1724.4716 
     830    129.05492   -11.829494            0   -11.812829      1770.08 
     840    127.02803   -11.829233            0   -11.812829    1803.3965 
     850    126.12608   -11.829116            0   -11.812829    1811.5901 
     860    126.40703   -11.829153            0   -11.812829    1794.4946 
     870    127.86574   -11.829341            0   -11.812829    1757.8337 
     880    130.42822   -11.829672            0   -11.812829    1700.7864 
     890     133.9523   -11.830127            0   -11.812829    1631.3694 
     900    138.23705    -11.83068            0   -11.812829    1552.2749 
     910    143.03051   -11.831299            0   -11.812829    1478.2751 
     920      148.047   -11.831947            0   -11.812829     1404.784 
     930    152.98349   -11.832585            0   -11.812829    1342.2371 
     940    157.53673   -11.833173            0   -11.812829    1289.0573 
     950    161.43197   -11.833676            0   -11.812829    1238.5636 
     960    164.44281   -11.834064            0   -11.812829    1191.1079 
     970    166.40767   -11.834318            0   -11.812829    1154.2911 
     980    167.22777   -11.834424            0   -11.812829    1124.8263 
     990    166.87794   -11.834379            0   -11.812829    1105.3021 
    1000    165.41458    -11.83419            0   -11.812829    1103.6847 
    1010    162.96916   -11.833874            0   -11.812829    1103.5041 
    1020      159.732   -11.833456            0   -11.812829    1112.0675 
    1030    155.94959   -11.832968            0   -11.812829    1135.9096 
    1040      151.896   -11.832444            0   -11.812829    1171.3181 
    1050    147.85605   -11.831922            0   -11.812829    1213.3491 
    1060    144.11128   -11.831439            0   -11.812829    1270.8778 
    1070    140.91426   -11.831026            0   -11.812829    1330.4212 
    1080    138.47259   -11.830711            0   -11.812829    1384.3596 
    1090    136.93799   -11.830512            0   -11.812829    1437.4621 
    1100     136.3968   -11.830443            0   -11.812829    1488.8012 
    1110    136.86735   -11.830503            0   -11.812829    1532.4046 
    1120     138.3005   -11.830688            0   -11.812829    1569.9793 
    1130    140.57985   -11.830983            0   -11.812829    1602.5389 
    1140    143.53357   -11.831364            0   -11.812829    1623.9228 
    1150    146.95034   -11.831805            0   -11.812829    1637.0147 
    1160    150.58951   -11.832275            0   -11.812829    1638.7351 
    1170    154.19809   -11.832741            0   -11.812829    1625.2894 
    1180    157.53067   -11.833172            0   -11.812829    1604.8651 
    1190    160.36805   -11.833538            0   -11.812829    1582.2474 
    1200    162.53079   -11.833817            0   -11.812829    1558.0942 
    1210    163.88684   -11.833993            0   -11.812829    1532.5324 
    1220    164.36045   -11.834054            0   -11.812829    1504.6522 
    1230    163.93381   -11.833999            0   -11.812829    1483.3743 
    1240    162.64717   -11.833833            0   -11.812829    1464.4694 
    1250    160.59397   -11.833567            0   -11.812829    1444.9379 
    1260    157.91739   -11.833222            0   -11.812829     1433.065 
    1270    154.79432   -11.832818            0   -11.812829    1428.5176 
    1280    151.43023   -11.832384            0   -11.812829    1415.2455 
    1290    148.03953   -11.831946            0   -11.812829    1412.4348 
    1300    144.82894   -11.831531            0   -11.812829     1422.561 
    1310    141.98834   -11.831165            0   -11.812829    1433.7757 
    1320    139.68375   -11.830867            0   -11.812829    1448.9576 
    1330     138.0452   -11.830655            0   -11.812829    1466.4187 
    1340     137.1641   -11.830542            0   -11.812829    1485.5732 
    1350     137.0869   -11.830532            0   -11.812829     1500.658 
    1360    137.80676   -11.830625            0   -11.812829     1510.032 
    1370    139.26267   -11.830813            0   -11.812829    1512.3374 
    1380     141.3424   -11.831081            0   -11.812829    1512.2516 
    1390    143.89822   -11.831411            0   -11.812829    1505.2289 
    1400    146.75275    -11.83178            0   -11.812829    1489.0531 
    1410    149.70435   -11.832161            0   -11.812829    1463.4089 
    1420    152.53849   -11.832527            0   -11.812829    1439.7532 
    1430    155.03884    -11.83285            0   -11.812829    1415.4501 
    1440    157.00756   -11.833104            0   -11.812829    1391.2566 
    1450    158.27451   -11.833268            0   -11.812829    1371.7108 
    1460     158.7139   -11.833325            0   -11.812829     1351.227 
    1470    158.25344   -11.833265            0   -11.812829    1330.6237 
    1480    156.87104   -11.833087            0   -11.812829    1318.2973 
    1490    154.60923   -11.832795            0   -11.812829    1302.8787 
    1500    151.57116   -11.832402            0   -11.812829    1288.0906 
    1510    147.92889   -11.831932            0   -11.812829    1281.1986 
    1520    143.90624   -11.831412            0   -11.812829    1287.8571 
    1530    139.76154   -11.830877            0   -11.812829    1317.6284 
    1540    135.77349   -11.830362            0   -11.812829    1350.6543 
    1550    132.22188   -11.829903            0   -11.812829    1386.4416 
    1560    129.36831   -11.829535            0   -11.812829    1428.9735 
    1570    127.43625   -11.829285            0   -11.812829     1467.817 
    1580    126.59816   -11.829177            0   -11.812829    1503.7226 
    1590    126.96212   -11.829224            0   -11.812829    1536.7317 
    1600     128.5614   -11.829431            0   -11.812829     1568.099 
    1610    131.35102   -11.829791            0   -11.812829    1590.8182 
    1620    135.20725   -11.830289            0   -11.812829    1600.6853 
    1630    139.93292   -11.830899            0   -11.812829    1603.9194 
    1640    145.27468   -11.831589            0   -11.812829    1604.6448 
    1650    150.93626    -11.83232            0   -11.812829    1602.6188 
    1660    156.59358   -11.833051            0   -11.812829    1596.6225 
    1670      161.921   -11.833739            0   -11.812829    1586.5382 
    1680    166.61453   -11.834345            0   -11.812829    1566.8445 
    1690    170.41943   -11.834836            0   -11.812829     1539.942 
    1700    173.14179   -11.835188            0   -11.812829    1505.7849 
    1710    174.64837   -11.835382            0   -11.812829    1470.8033 
    1720    174.88016   -11.835412            0   -11.812829    1439.3785 
    1730    173.86155   -11.835281            0   -11.812829    1416.4279 
    1740    171.69154      -11.835            0   -11.812829    1395.3962 
    1750    168.53133   -11.834592            0   -11.812829    1377.3409 
    1760     164.5991   -11.834085            0   -11.812829    1372.3971 
    1770    160.15349    -11.83351            0   -11.812829    1379.5083 
    1780    155.46554   -11.832905            0   -11.812829    1399.4448 
    1790     150.8127   -11.832304            0   -11.812829    1440.7321 
    1800    146.45388   -11.831741            0   -11.812829    1499.5448 
    1810    142.61555   -11.831246            0   -11.812829    1567.1421 
    1820    139.47881   -11.830841            0   -11.812829    1635.8618 
    1830    137.17016   -11.830542            0   -11.812829    1703.8957 
    1840    135.75658    -11.83036            0   -11.812829    1766.5331 
    1850    135.24363   -11.830294            0   -11.812829    1817.2662 
    1860    135.58328   -11.830338            0   -11.812829    1851.1522 
    1870    136.67775   -11.830479            0   -11.812829    1866.0711 
    1880    138.38839     -11.8307            0   -11.812829    1857.7769 
    1890    140.54162   -11.830978            0   -11.812829    1834.9038 
    1900    142.93597   -11.831287            0   -11.812829    1794.8413 
    1910    145.36739   -11.831601            0   -11.812829    1740.5185 
    1920    147.64344   -11.831895            0   -11.812829    1676.0114 
    1930    149.59341   -11.832147            0   -11.812829     1606.452 
    1940    151.08148   -11.832339            0   -11.812829      1544.32 
    1950    152.01825    -11.83246            0   -11.812829    1493.9409 
    1960    152.35765   -11.832504            0   -11.812829    1455.0011 
    1970    152.11188   -11.832472            0   -11.812829    1422.9983 
    1980    151.34236   -11.832373            0   -11.812829    1396.4242 
    1990    150.15212   -11.832219            0   -11.812829    1368.8639 
    2000    148.67798   -11.832029            0   -11.812829    1350.6236 
    2010    147.07679   -11.831822            0   -11.812829    1335.6795 
    2020    145.52019   -11.831621            0   -11.812829    1331.1992 
    2030    144.17474   -11.831447            0   -11.812829    1333.8669 
    2040     143.1938    -11.83132            0   -11.812829    1337.5676 
    2050    142.70226   -11.831257            0   -11.812829    1342.9265 
    2060     142.7886   -11.831268            0   -11.812829    1351.9515 
    2070    143.49971    -11.83136            0   -11.812829    1357.4918 
    2080     144.8349   -11.831532            0   -11.812829    1362.9776 
    2090    146.74069   -11.831778            0   -11.812829    1369.8531 
    2100    149.11922   -11.832086            0   -11.812829    1363.8816 
    2110    151.83652   -11.832436            0   -11.812829     1351.169 
    2120    154.72972    -11.83281            0   -11.812829    1345.1899 
    2130    157.61252   -11.833182            0   -11.812829    1333.1268 
    2140    160.28675   -11.833528            0   -11.812829    1321.6338 
    2150    162.54865    -11.83382            0   -11.812829    1311.3128 
    2160    164.20157   -11.834033            0   -11.812829    1307.5202 
    2170    165.07884   -11.834147            0   -11.812829    1315.5107 
    2180    165.05488   -11.834143            0   -11.812829    1327.3817 
    2190    164.04639   -11.834013            0   -11.812829    1342.8444 
    2200    162.03115   -11.833753            0   -11.812829     1360.908 
    2210     159.0582   -11.833369            0   -11.812829    1384.5099 
    2220    155.23282   -11.832875            0   -11.812829     1424.237 
    2230    150.71722   -11.832292            0   -11.812829    1476.9262 
    2240    145.72816   -11.831648            0   -11.812829     1533.368 
    2250    140.52412   -11.830976            0   -11.812829    1596.2217 
    2260    135.39836   -11.830314            0   -11.812829    1652.4058 
    2270    130.65335   -11.829701            0   -11.812829    1693.9723 
    2280    126.59213   -11.829176            0   -11.812829    1724.0568 
    2290    123.49296   -11.828776            0   -11.812829    1738.9087 
    2300    121.58678    -11.82853            0   -11.812829    1735.7235 
    2310     121.0457    -11.82846            0   -11.812829    1716.8725 
    2320    121.96548   -11.828579            0   -11.812829     1679.193 
    2330    124.35588   -11.828888            0   -11.812829    1626.1182 
    2340    128.13992   -11.829376            0   -11.812829    1563.7488 
    2350    133.14999   -11.830023            0   -11.812829    1503.4081 
    2360    139.13823   -11.830797            0   -11.812829    1439.6741 
    2370    145.78749   -11.831655            0   -11.812829    1373.1917 
    2380    152.73075   -11.832552            0   -11.812829    1309.8395 
    2390    159.57521   -11.833436            0   -11.812829    1249.8317 
    2400    165.92478   -11.834256            0   -11.812829    1200.7006 
    2410     171.4036   -11.834963            0   -11.812829    1161.8698 
    2420     175.6802   -11.835516            0   -11.812829    1142.5092 
    2430    178.50178    -11.83588            0   -11.812829    1141.7236 
    2440    179.70305   -11.836035            0   -11.812829    1148.9435 
    2450    179.21286   -11.835972            0   -11.812829    1161.4751 
    2460    177.07498   -11.835696            0   -11.812829    1178.8129 
    2470    173.43716   -11.835226            0   -11.812829    1201.4316 
    2480    168.54124   -11.834594            0   -11.812829    1236.5469 
    2490    162.70161    -11.83384            0   -11.812829    1278.0007 
    2500    156.28501   -11.833011            0   -11.812829    1334.9407 
    2510    149.68946   -11.832159            0   -11.812829    1392.8141 
    2520    143.30569   -11.831335            0   -11.812829    1445.1901 
    2530    137.49924   -11.830585            0   -11.812829     1489.771 
    2540    132.58288    -11.82995            0   -11.812829    1533.5603 
    2550      128.798   -11.829461            0   -11.812829    1574.7816 
    2560    126.30496   -11.829139            0   -11.812829    1612.6095 
    2570    125.17324   -11.828993            0   -11.812829    1638.2363 
    2580    125.37879    -11.82902            0   -11.812829    1648.1154 
    2590    126.81506   -11.829205            0   -11.812829    1654.0259 
    2600    129.30258   -11.829526            0   -11.812829    1653.5851 
    2610    132.60464   -11.829953            0   -11.812829    1647.9271 
    2620    136.44823   -11.830449            0   -11.812829    1638.2307 
    2630      140.545   -11.830978            0   -11.812829    1631.4404 
    2640    144.61161   -11.831503            0   -11.812829    1628.4957 
    2650      148.389   -11.831991            0   -11.812829    1625.7065 
    2660    151.66074   -11.832414            0   -11.812829    1625.7013 
    2670    154.27057   -11.832751            0   -11.812829    1631.5244 
    2680    156.13285   -11.832991            0   -11.812829    1632.4071 
    2690    157.22813   -11.833133            0   -11.812829    1624.6429 
    2700    157.60423   -11.833181            0   -11.812829     1613.499 
    2710    157.36563    -11.83315            0   -11.812829    1600.7939 
    2720    156.65968   -11.833059            0   -11.812829     1589.404 
    2730     155.6621    -11.83293            0   -11.812829    1574.0246 
    2740    154.55604   -11.832788            0   -11.812829    1552.8175 
    2750    153.51813   -11.832654            0   -11.812829    1537.1186 
    2760    152.70621   -11.832549            0   -11.812829    1527.4515 
    2770      152.241   -11.832489            0   -11.812829    1514.0825 
    2780    152.19406   -11.832483            0   -11.812829    1492.7878 
    2790    152.58809   -11.832533            0   -11.812829     1472.316 
    2800    153.38608   -11.832637            0   -11.812829    1448.9196 
    2810    154.50817   -11.832781            0   -11.812829    1425.7855 
    2820    155.83926   -11.832953            0   -11.812829    1397.0987 
    2830    157.23529   -11.833134            0   -11.812829    1375.3701 
    2840    158.53084   -11.833301            0   -11.812829    1357.9441 
    2850    159.55833   -11.833434            0   -11.812829    1348.2053 
    2860    160.16262   -11.833512            0   -11.812829     1338.205 
    2870    160.22001   -11.833519            0   -11.812829    1331.5074 
    2880    159.64072   -11.833444            0   -11.812829    1333.3862 
    2890    158.38484   -11.833282            0   -11.812829    1346.2458 
    2900    156.45975   -11.833034            0   -11.812829    1369.1804 
    2910    153.92384   -11.832706            0   -11.812829    1405.1612 
    2920    150.88646   -11.832314            0   -11.812829    1448.1902 
    2930    147.50799   -11.831877            0   -11.812829    1490.0219 
    2940    143.98395   -11.831422            0   -11.812829    1531.4753 
    2950    140.52547   -11.830976            0   -11.812829     1570.977 
    2960    137.34622   -11.830565            0   -11.812829    1603.1651 
    2970    134.64678   -11.830217            0   -11.812829    1621.4647 
    2980    132.60497   -11.829953            0   -11.812829    1626.5654 
    2990    131.35788   -11.829792            0   -11.812829    1620.2077 
    3000     130.9967   -11.829745            0   -11.812829    1597.5591 
    3010    131.56029   -11.829818            0   -11.812829    1567.2343 
    3020    133.02634   -11.830007            0   -11.812829    1523.6497 
    3030    135.30956   -11.830302            0   -11.812829     1469.781 
    3040    138.27379   -11.830685            0   -11.812829    1420.7376 
    3050    141.73911   -11.831133            0   -11.812829    1370.0958 
    3060    145.49694   -11.831618            0   -11.812829    1318.6062 
    3070    149.32718   -11.832112            0   -11.812829    1269.2559 
    3080    153.01374   -11.832588            0   -11.812829    1218.4398 
    3090    156.35564    -11.83302            0   -11.812829    1175.2555 
    3100    159.17972   -11.833385            0   -11.812829    1138.7307 
    3110    161.34901   -11.833665            0   -11.812829     1109.489 
    3120    162.76293   -11.833847            0   -11.812829    1095.6871 
    3130    163.37044   -11.833926            0   -11.812829    1093.2028 
    3140    163.16822     -11.8339            0   -11.812829      1101.24 
    3150    162.19372   -11.833774            0   -11.812829    1119.6602 
    3160    160.52351   -11.833558            0   -11.812829    1158.8027 
    3170      158.266   -11.833267            0   -11.812829    1213.1953 
    3180    155.56134   -11.832917            0   -11.812829    1280.0687 
    3190    152.56988   -11.832531            0   -11.812829    1348.5456 
    3200    149.46112    -11.83213            0   -11.812829    1416.3606 
    3210    146.40317   -11.831735            0   -11.812829    1490.7357 
    3220    143.55696   -11.831367            0   -11.812829    1562.6061 
    3230    141.06277   -11.831045            0   -11.812829    1623.9885 
    3240    139.03933   -11.830784            0   -11.812829    1673.0052 
    3250    137.57279   -11.830594            0   -11.812829    1707.3063 
    3260    136.71828   -11.830484            0   -11.812829     1722.712 
    3270    136.49381   -11.830455            0   -11.812829      1719.65 
    3280      136.882   -11.830505            0   -11.812829    1705.5484 
    3290    137.83653   -11.830629            0   -11.812829    1688.2725 
    3300    139.27843   -11.830815            0   -11.812829     1660.156 
    3310    141.10824   -11.831051            0   -11.812829    1611.4224 
    3320    143.21284   -11.831323            0   -11.812829    1547.1404 
    3330     145.4806   -11.831616            0   -11.812829    1483.8421 
    3340    147.79534   -11.831915            0   -11.812829    1417.7333 
    3350    150.04536   -11.832205            0   -11.812829    1353.8326 
    3360    152.13921   -11.832476            0   -11.812829    1299.7764 
    3370    154.00639   -11.832717            0   -11.812829    1257.8732 
    3380    155.59664   -11.832922            0   -11.812829    1234.2464 
    3390    156.88141   -11.833088            0   -11.812829    1231.9231 
    3400    157.84921   -11.833213            0   -11.812829    1244.9784 
    3410    158.50844   -11.833298            0   -11.812829    1276.2016 
    3420    158.88772   -11.833347            0   -11.812829    1314.5539 
    3430    159.01794   -11.833364            0   -11.812829     1353.417 
    3440    158.93708   -11.833353            0   -11.812829     1390.506 
    3450    158.68224    -11.83332            0   -11.812829    1427.2282 
    3460     158.2849   -11.833269            0   -11.812829    1458.8373 
    3470    157.76638   -11.833202            0   -11.812829    1490.4731 
    3480    157.13774   -11.833121            0   -11.812829    1513.8069 
    3490    156.40053   -11.833026            0   -11.812829    1528.3987 
    3500    155.54647   -11.832916            0   -11.812829     1532.057 
    3510    154.55924   -11.832788            0   -11.812829    1527.2828 
    3520    153.42184   -11.832641            0   -11.812829    1511.9059 
    3530    152.11453   -11.832472            0   -11.812829     1492.033 
    3540    150.62573    -11.83228            0   -11.812829     1464.017 
    3550    148.95578   -11.832064            0   -11.812829    1435.4838 
    3560    147.11903   -11.831827            0   -11.812829    1419.2386 
    3570    145.15411   -11.831574            0   -11.812829    1413.0669 
    3580     143.1223   -11.831311            0   -11.812829    1411.9237 
    3590    141.10539   -11.831051            0   -11.812829    1411.7578 
    3600    139.20055   -11.830805            0   -11.812829    1419.4549 
    3610    137.52112   -11.830588            0   -11.812829    1439.9945 
    3620     136.1879   -11.830416            0   -11.812829    1470.9516 
    3630    135.30799   -11.830302            0   -11.812829    1506.4965 
    3640    134.96958   -11.830258            0   -11.812829    1547.1436 
    3650     135.2393   -11.830293            0   -11.812829     1584.943 
    3660    136.15035   -11.830411            0   -11.812829    1622.0448 
    3670    137.69804   -11.830611            0   -11.812829    1660.7891 
    3680     139.8355   -11.830887            0   -11.812829    1688.9582 
    3690    142.47362   -11.831227            0   -11.812829    1705.7522 
    3700    145.47792   -11.831615            0   -11.812829    1709.4808 
    3710    148.67735   -11.832028            0   -11.812829    1694.0071 
    3720    151.88463   -11.832443            0   -11.812829    1665.9546 
    3730    154.90333   -11.832833            0   -11.812829    1622.6965 
    3740    157.54081   -11.833173            0   -11.812829    1573.4562 
    3750    159.63079   -11.833443            0   -11.812829    1518.3513 
    3760     161.0369   -11.833625            0   -11.812829    1461.9213 
    3770    161.66294   -11.833705            0   -11.812829    1403.1553 
    3780     161.4694    -11.83368            0   -11.812829    1347.5129 
    3790    160.47296   -11.833552            0   -11.812829    1301.2564 
    3800    158.74457   -11.833329            0   -11.812829    1262.3464 
    3810    156.40372   -11.833026            0   -11.812829    1235.7572 
    3820    153.60377   -11.832665            0   -11.812829    1226.5865 
    3830    150.53026   -11.832268            0   -11.812829    1229.3511 
    3840     147.3857   -11.831862            0   -11.812829    1248.9244 
    3850    144.37307   -11.831473            0   -11.812829     1284.472 
    3860    141.68401   -11.831125            0   -11.812829    1329.1337 
    3870    139.48101   -11.830841            0   -11.812829    1381.5922 
    3880    137.88494   -11.830635            0   -11.812829    1434.1379 
    3890    136.96777   -11.830516            0   -11.812829    1486.1114 
    3900    136.74646   -11.830488            0   -11.812829    1532.9488 
    3910    137.18594   -11.830545            0   -11.812829    1581.1811 
    3920    138.20602   -11.830676            0   -11.812829    1620.5146 
    3930     139.6887   -11.830868            0   -11.812829    1646.9892 
    3940    141.49158   -11.831101            0   -11.812829     1664.612 
    3950    143.46042   -11.831355            0   -11.812829    1678.4144 
    3960    145.44111   -11.831611            0   -11.812829    1681.0866 
    3970    147.30008   -11.831851            0   -11.812829    1671.8088 
    3980    148.93565   -11.832062            0   -11.812829    1661.4719 
    3990    150.27473   -11.832235            0   -11.812829    1653.0734 
    4000    151.28145   -11.832365            0   -11.812829    1634.3711 
    4010    151.95544   -11.832452            0   -11.812829    1600.4544 
    4020    152.33598   -11.832501            0   -11.812829    1569.8697 
    4030    152.49333   -11.832521            0   -11.812829     1538.492 
    4040    152.52242   -11.832525            0   -11.812829    1499.1882 
    4050     152.5254   -11.832525            0   -11.812829    1464.7428 
    4060     152.6037   -11.832535            0   -11.812829    1429.6419 
    4070     152.8439   -11.832567            0   -11.812829    1405.1169 
    4080    153.31121   -11.832627            0   -11.812829    1386.2857 
    4090    154.04088   -11.832721            0   -11.812829    1367.2379 
    4100    155.03291   -11.832849            0   -11.812829     1349.822 
    4110    156.24652   -11.833006            0   -11.812829     1333.264 
    4120    157.60458   -11.833181            0   -11.812829     1306.152 
    4130    158.99817   -11.833361            0   -11.812829    1286.2231 
    4140    160.29629   -11.833529            0   -11.812829    1269.2626 
    4150    161.35747   -11.833666            0   -11.812829    1258.7823 
    4160     162.0428   -11.833754            0   -11.812829    1258.7178 
    4170    162.22446   -11.833778            0   -11.812829    1258.6682 
    4180    161.80118   -11.833723            0   -11.812829    1264.9175 
    4190    160.72047   -11.833584            0   -11.812829    1278.9941 
    4200    158.97684   -11.833359            0   -11.812829    1295.1907 
    4210    156.61001   -11.833053            0   -11.812829    1319.6471 
    4220    153.70997   -11.832678            0   -11.812829    1352.0852 
    4230    150.41421   -11.832253            0   -11.812829    1389.7037 
    4240    146.89796   -11.831799            0   -11.812829    1424.2532 
    4250    143.35692   -11.831341            0   -11.812829     1456.486 
    4260    140.00361   -11.830908            0   -11.812829    1492.3414 
    4270    137.04147   -11.830526            0   -11.812829    1529.6087 
    4280    134.64978   -11.830217            0   -11.812829     1560.426 
    4290    132.97124       -11.83            0   -11.812829     1569.847 
    4300    132.09375   -11.829887            0   -11.812829     1561.598 
    4310    132.04977   -11.829881            0   -11.812829    1548.7454 
    4320     132.8101   -11.829979            0   -11.812829    1531.4169 
    4330    134.28198    -11.83017            0   -11.812829    1512.9517 
    4340    136.31996   -11.830433            0   -11.812829    1483.3671 
    4350     138.7386   -11.830745            0   -11.812829    1439.6992 
    4360    141.32495   -11.831079            0   -11.812829    1393.6447 
    4370    143.86192   -11.831407            0   -11.812829    1343.8734 
    4380    146.14372   -11.831701            0   -11.812829    1301.4988 
    4390    147.99587   -11.831941            0   -11.812829    1269.7195 
    4400    149.29598   -11.832108            0   -11.812829    1248.9339 
    4410    149.98814   -11.832198            0   -11.812829    1236.0733 
    4420    150.07831   -11.832209            0   -11.812829    1231.4595 
    4430     149.6392   -11.832153            0   -11.812829    1235.9875 
    4440    148.80395   -11.832045            0   -11.812829    1261.0336 
    4450    147.75229   -11.831909            0   -11.812829    1299.3855 
    4460    146.69375   -11.831772            0   -11.812829    1351.1348 
    4470    145.84023   -11.831662            0   -11.812829    1407.9506 
    4480    145.39274   -11.831604            0   -11.812829     1474.466 
    4490    145.52376   -11.831621            0   -11.812829    1529.0492 
    4500    146.35764   -11.831729            0   -11.812829     1562.225 
    4510    147.95784   -11.831936            0   -11.812829    1583.4856 
    4520    150.32664   -11.832241            0   -11.812829     1602.817 
    4530    153.39563   -11.832638            0   -11.812829    1613.6039 
    4540    157.02852   -11.833107            0   -11.812829    1617.7743 
    4550    161.03053   -11.833624            0   -11.812829    1619.2847 
    4560    165.16021   -11.834157            0   -11.812829    1612.4824 
    4570    169.13988   -11.834671            0   -11.812829    1591.4116 
    4580    172.68134   -11.835128            0   -11.812829    1555.8193 
    4590    175.50384   -11.835493            0   -11.812829    1521.6341 
    4600    177.36497   -11.835733            0   -11.812829     1484.337 
    4610    178.07456   -11.835825            0   -11.812829    1442.8008 
    4620    177.50597   -11.835751            0   -11.812829    1399.6406 
    4630    175.60959   -11.835506            0   -11.812829    1364.3013 
    4640    172.41655   -11.835094            0   -11.812829      1333.83 
    4650    168.03075   -11.834528            0   -11.812829    1323.3822 
    4660    162.63079    -11.83383            0   -11.812829    1319.2468 
    4670    156.45942   -11.833033            0   -11.812829    1333.0769 
    4680    149.80227   -11.832174            0   -11.812829     1368.807 
    4690    142.97638   -11.831292            0   -11.812829    1423.0277 
    4700    136.31184   -11.830432            0   -11.812829     1481.691 
    4710    130.12745   -11.829633            0   -11.812829    1541.6719 
    4720    124.71739   -11.828934            0   -11.812829    1594.8482 
    4730    120.32739   -11.828367            0   -11.812829    1637.7496 
    4740    117.14898   -11.827957            0   -11.812829    1672.6928 
    4750    115.30986    -11.82772            0   -11.812829    1692.9573 
    4760    114.86686   -11.827662            0   -11.812829    1697.5505 
    4770    115.80441   -11.827783            0   -11.812829    1683.2516 
    4780    118.03286   -11.828071            0   -11.812829    1645.8658 
    4790    121.40173   -11.828506            0   -11.812829    1597.0504 
    4800    125.70568   -11.829062            0   -11.812829    1530.4723 
    4810    130.70177   -11.829707            0   -11.812829    1451.4438 
    4820    136.12549   -11.830408            0   -11.812829    1366.6857 
    4830    141.70539   -11.831128            0   -11.812829    1273.2211 
    4840    147.17615   -11.831835            0   -11.812829    1184.6238 
    4850    152.29467   -11.832496            0   -11.812829    1109.9568 
    4860    156.85077   -11.833084            0   -11.812829     1060.776 
    4870    160.67433   -11.833578            0   -11.812829    1037.8176 
    4880    163.64146   -11.833961            0   -11.812829    1033.7972 
    4890    165.67615   -11.834224            0   -11.812829    1056.9676 
    4900    166.74698   -11.834362            0   -11.812829    1098.7249 
    4910    166.87169   -11.834378            0   -11.812829       1155.4 
    4920     166.1103    -11.83428            0   -11.812829    1225.5532 
    4930    164.56331    -11.83408            0   -11.812829    1304.3032 
    4940    162.35544   -11.833795            0   -11.812829    1386.3084 
    4950    159.63265   -11.833443            0   -11.812829    1473.4693 
    4960    156.55158   -11.833045            0   -11.812829    1566.5937 
    4970    153.27765   -11.832623            0   -11.812829    1664.4843 
    4980    149.97934   -11.832197            0   -11.812829     1743.189 
    4990    146.81841   -11.831788            0   -11.812829    1799.7544 
    5000    143.94246   -11.831417            0   -11.812829    1829.9523 
    5010     141.4804   -11.831099            0   -11.812829    1832.7657 
    5020    139.53669   -11.830848            0   -11.812829    1811.1701 
    5030    138.19126   -11.830674            0   -11.812829    1774.5079 
    5040    137.49457   -11.830584            0   -11.812829    1720.4307 
    5050    137.46543   -11.830581            0   -11.812829    1653.0232 
    5060    138.08786   -11.830661            0   -11.812829    1576.0391 
    5070    139.31276   -11.830819            0   -11.812829    1495.7659 
    5080    141.06014   -11.831045            0   -11.812829    1415.1462 
    5090    143.22575   -11.831324            0   -11.812829    1345.8689 
    5100    145.68235   -11.831642            0   -11.812829    1298.8275 
    5110    148.28488   -11.831978            0   -11.812829    1263.4837 
    5120    150.87817   -11.832313            0   -11.812829    1246.7785 
    5130    153.30912   -11.832627            0   -11.812829    1248.5665 
    5140    155.43846   -11.832902            0   -11.812829    1260.8654 
    5150    157.14367   -11.833122            0   -11.812829    1280.8039 
    5160    158.32894   -11.833275            0   -11.812829     1306.757 
    5170     158.9327   -11.833353            0   -11.812829    1338.2031 
    5180    158.93024   -11.833353            0   -11.812829    1369.6593 
    5190    158.33255   -11.833275            0   -11.812829    1407.2823 
    5200    157.19449   -11.833128            0   -11.812829    1445.1438 
    5210    155.61212   -11.832924            0   -11.812829    1481.6547 
    5220    153.71768   -11.832679            0   -11.812829    1517.3297 
    5230    151.67095   -11.832415            0   -11.812829    1547.5801 
    5240    149.64254   -11.832153            0   -11.812829    1560.9261 
    5250    147.80524   -11.831916            0   -11.812829    1558.5311 
    5260    146.32092   -11.831724            0   -11.812829    1559.3682 
    5270     145.3207   -11.831595            0   -11.812829    1558.1707 
    5280    144.88762   -11.831539            0   -11.812829    1547.9588 
    5290    145.04743    -11.83156            0   -11.812829     1517.111 
    5300    145.78074   -11.831654            0   -11.812829    1483.0539 
    5310     147.0188   -11.831814            0   -11.812829    1462.1291 
    5320    148.64736   -11.832025            0   -11.812829    1446.2407 
    5330    150.51129   -11.832265            0   -11.812829    1431.6055 
    5340    152.43773   -11.832514            0   -11.812829    1422.9305 
    5350    154.24642   -11.832748            0   -11.812829    1412.4931 
    5360    155.75869   -11.832943            0   -11.812829     1404.273 
    5370    156.81859    -11.83308            0   -11.812829    1402.7377 
    5380    157.30243   -11.833142            0   -11.812829    1413.1263 
    5390    157.12887    -11.83312            0   -11.812829    1445.4405 
    5400    156.27199   -11.833009            0   -11.812829    1488.3454 
    5410     154.7593   -11.832814            0   -11.812829    1538.3702 
    5420    152.66848   -11.832544            0   -11.812829    1584.0903 
    5430    150.12395   -11.832215            0   -11.812829    1621.1273 
    5440    147.28989   -11.831849            0   -11.812829    1657.1978 
    5450    144.36668   -11.831472            0   -11.812829    1692.8953 
    5460    141.56956   -11.831111            0   -11.812829    1717.0672 
    5470    139.10818   -11.830793            0   -11.812829    1726.4839 
    5480    137.17614   -11.830543            0   -11.812829    1725.3003 
    5490    135.92378   -11.830382            0   -11.812829    1710.0546 
    5500    135.45547   -11.830321            0   -11.812829    1681.5951 
    5510    135.82546   -11.830369            0   -11.812829    1639.8236 
    5520    137.02257   -11.830523            0   -11.812829    1584.6337 
    5530    138.97475   -11.830776            0   -11.812829    1524.3711 
    5540    141.55851   -11.831109            0   -11.812829    1455.4687 
    5550    144.60058   -11.831502            0   -11.812829    1381.9627 
    5560    147.89942   -11.831928            0   -11.812829    1312.1124 
    5570     151.2429    -11.83236            0   -11.812829     1253.806 
    5580    154.41448   -11.832769            0   -11.812829    1209.3266 
    5590    157.21384   -11.833131            0   -11.812829     1183.473 
    5600    159.46992   -11.833422            0   -11.812829    1169.8412 
    5610    161.05365   -11.833627            0   -11.812829    1170.6505 
    5620    161.88212   -11.833734            0   -11.812829    1185.2915 
    5630    161.92415   -11.833739            0   -11.812829      1219.01 
    5640     161.2004   -11.833646            0   -11.812829    1260.8417 
    5650    159.77552   -11.833462            0   -11.812829    1296.9057 
    5660    157.75411   -11.833201            0   -11.812829    1329.2255 
    5670    155.27485    -11.83288            0   -11.812829     1367.353 
    5680    152.50208   -11.832522            0   -11.812829    1417.8372 
    5690    149.62085    -11.83215            0   -11.812829    1474.8794 
    5700    146.81596   -11.831788            0   -11.812829    1538.3824 
    5710    144.25795   -11.831458            0   -11.812829    1602.6023 
    5720      142.099   -11.831179            0   -11.812829    1662.0508 
    5730    140.46132   -11.830967            0   -11.812829    1711.0558 
    5740    139.42778   -11.830834            0   -11.812829     1751.922 
    5750    139.04078   -11.830784            0   -11.812829    1783.7468 
    5760      139.301   -11.830818            0   -11.812829    1805.3422 
    5770    140.16662   -11.830929            0   -11.812829    1813.8905 
    5780    141.56515    -11.83111            0   -11.812829    1811.7148 
    5790    143.39556   -11.831346            0   -11.812829    1791.4812 
    5800    145.53202   -11.831622            0   -11.812829    1750.2057 
    5810    147.83651    -11.83192            0   -11.812829     1701.589 
    5820    150.17138   -11.832221            0   -11.812829    1642.4517 
    5830    152.40066   -11.832509            0   -11.812829     1569.237 
    5840    154.40765   -11.832768            0   -11.812829    1498.8752 
    5850    156.10154   -11.832987            0   -11.812829    1427.0948 
    5860    157.41156   -11.833156            0   -11.812829    1357.5716 
    5870    158.29434    -11.83327            0   -11.812829    1292.7447 
    5880    158.73341   -11.833327            0   -11.812829    1233.4683 
    5890    158.73022   -11.833327            0   -11.812829    1180.6149 
    5900     158.2974   -11.833271            0   -11.812829    1145.2841 
    5910    157.45915   -11.833163            0   -11.812829    1123.6976 
    5920    156.24858   -11.833006            0   -11.812829    1117.5352 
    5930    154.70806   -11.832807            0   -11.812829    1127.7247 
    5940     152.8947   -11.832573            0   -11.812829    1159.5503 
    5950    150.87477   -11.832312            0   -11.812829    1213.3808 
    5960    148.72084   -11.832034            0   -11.812829    1268.2071 
    5970    146.51934    -11.83175            0   -11.812829    1332.0397 
    5980    144.36476   -11.831472            0   -11.812829    1395.3266 
    5990    142.35683   -11.831212            0   -11.812829    1465.6889 
    6000    140.58982   -11.830984            0   -11.812829    1547.1198 
    6010    139.15279   -11.830799            0   -11.812829    1632.9021 
    6020    138.11919   -11.830665            0   -11.812829    1712.9738 
    6030    137.54659   -11.830591            0   -11.812829    1785.8211 
    6040    137.47216   -11.830581            0   -11.812829     1847.849 
    6050    137.90338   -11.830637            0   -11.812829    1892.5661 
    6060    138.81697   -11.830755            0   -11.812829    1916.0835 
    6070    140.15523   -11.830928            0   -11.812829    1922.9157 
    6080    141.83891   -11.831145            0   -11.812829    1907.9745 
    6090    143.76493   -11.831394            0   -11.812829    1868.5064 
    6100    145.81156   -11.831658            0   -11.812829    1811.9071 
    6110    147.84975   -11.831922            0   -11.812829     1738.515 
    6120     149.7513   -11.832167            0   -11.812829    1658.6725 
    6130    151.38994   -11.832379            0   -11.812829    1565.6705 
    6140    152.65839   -11.832543            0   -11.812829    1470.2395 
    6150    153.47664   -11.832648            0   -11.812829    1383.1005 
    6160    153.80085    -11.83269            0   -11.812829    1305.0053 
    6170    153.62337   -11.832667            0   -11.812829    1247.8441 
    6180    152.97573   -11.832584            0   -11.812829    1208.1558 
    6190    151.92755   -11.832448            0   -11.812829    1187.6872 
    6200    150.58344   -11.832275            0   -11.812829     1179.149 
    6210    149.07544    -11.83208            0   -11.812829    1188.2662 
    6220    147.55129   -11.831883            0   -11.812829    1213.2349 
    6230     146.1633   -11.831704            0   -11.812829    1242.2019 
    6240    145.05783   -11.831561            0   -11.812829    1276.7458 
    6250    144.36021   -11.831471            0   -11.812829    1317.8049 
    6260     144.1597   -11.831445            0   -11.812829    1356.5979 
    6270    144.50861    -11.83149            0   -11.812829    1399.8309 
    6280    145.41929   -11.831608            0   -11.812829    1439.0606 
    6290    146.86478   -11.831794            0   -11.812829    1466.8624 
    6300    148.77685   -11.832041            0   -11.812829    1491.2188 
    6310     151.0425   -11.832334            0   -11.812829    1509.1507 
    6320    153.51697   -11.832653            0   -11.812829     1521.391 
    6330    156.03296   -11.832978            0   -11.812829    1524.2926 
    6340    158.41101   -11.833285            0   -11.812829    1525.0375 
    6350    160.46259    -11.83355            0   -11.812829     1525.084 
    6360    162.01075    -11.83375            0   -11.812829    1520.6911 
    6370    162.91407   -11.833867            0   -11.812829    1511.8158 
    6380    163.07723   -11.833888            0   -11.812829    1501.9649 
    6390    162.44883   -11.833807            0   -11.812829    1492.2906 
    6400    161.03621   -11.833624            0   -11.812829    1478.7505 
    6410    158.89941   -11.833349            0   -11.812829    1469.6921 
    6420    156.14408   -11.832993            0   -11.812829      1460.76 
    6430    152.91889   -11.832576            0   -11.812829    1458.4042 
    6440    149.40665   -11.832123            0   -11.812829    1463.4604 
    6450    145.81251   -11.831659            0   -11.812829    1477.3543 
    6460    142.34831   -11.831211            0   -11.812829    1501.7997 
    6470    139.22091   -11.830807            0   -11.812829    1534.2527 
    6480    136.61337   -11.830471            0   -11.812829    1567.1488 
    6490     134.6755    -11.83022            0   -11.812829    1607.4944 
    6500     133.5135    -11.83007            0   -11.812829    1640.4624 
    6510    133.19102   -11.830029            0   -11.812829    1663.7217 
    6520    133.71755   -11.830097            0   -11.812829    1682.7693 
    6530    135.05131   -11.830269            0   -11.812829    1695.9478 
    6540    137.09984   -11.830533            0   -11.812829    1697.6882 
    6550    139.73463   -11.830874            0   -11.812829    1682.9373 
    6560    142.80014    -11.83127            0   -11.812829     1652.356 
    6570    146.12605   -11.831699            0   -11.812829    1613.2811 
    6580    149.53359   -11.832139            0   -11.812829    1572.4162 
    6590     152.8491   -11.832567            0   -11.812829    1531.5392 
    6600    155.90632   -11.832962            0   -11.812829    1494.5164 
    6610    158.55548   -11.833304            0   -11.812829    1465.7907 
    6620    160.66805   -11.833577            0   -11.812829    1449.4997 
    6630    162.15232   -11.833769            0   -11.812829    1437.0453 
    6640    162.95291   -11.833872            0   -11.812829    1429.1341 
    6650    163.04569   -11.833884            0   -11.812829    1434.6638 
    6660     162.4411   -11.833806            0   -11.812829    1439.1424 
    6670    161.17385   -11.833642            0   -11.812829    1454.0687 
    6680    159.29902     -11.8334            0   -11.812829    1466.0689 
    6690    156.89638    -11.83309            0   -11.812829    1479.4273 
    6700    154.07543   -11.832726            0   -11.812829     1497.326 
    6710    150.97193   -11.832325            0   -11.812829    1524.1533 
    6720    147.73558   -11.831907            0   -11.812829    1551.2643 
    6730    144.52661   -11.831492            0   -11.812829    1579.5588 
    6740    141.50713   -11.831103            0   -11.812829    1606.3015 
    6750    138.83394   -11.830757            0   -11.812829    1636.5722 
    6760    136.65168   -11.830476            0   -11.812829    1663.9119 
    6770    135.08259   -11.830273            0   -11.812829    1687.1678 
    6780    134.21557   -11.830161            0   -11.812829    1702.4202 
    6790    134.10619   -11.830147            0   -11.812829    1717.1958 
    6800    134.76652   -11.830232            0   -11.812829    1721.4326 
    6810    136.16622   -11.830413            0   -11.812829    1713.5514 
    6820    138.23104   -11.830679            0   -11.812829    1691.0094 
    6830    140.84017   -11.831016            0   -11.812829    1656.5298 
    6840    143.83378   -11.831403            0   -11.812829    1617.9802 
    6850    147.02797   -11.831815            0   -11.812829    1576.8546 
    6860    150.22728   -11.832229            0   -11.812829     1531.487 
    6870    153.23538   -11.832617            0   -11.812829    1484.2293 
    6880     155.8743   -11.832958            0   -11.812829    1441.6597 
    6890    157.99019   -11.833231            0   -11.812829    1401.9014 
    6900    159.46655   -11.833422            0   -11.812829    1368.1329 
    6910    160.23852   -11.833521            0   -11.812829    1343.5366 
    6920    160.28922   -11.833528            0   -11.812829    1334.0006 
    6930     159.6504   -11.833446            0   -11.812829    1339.2433 
    6940    158.40606   -11.833285            0   -11.812829    1353.3506 
    6950    156.69405   -11.833064            0   -11.812829    1364.0975 
    6960    154.68567   -11.832804            0   -11.812829    1375.9238 
    6970    152.56885   -11.832531            0   -11.812829     1390.665 
    6980    150.53712   -11.832269            0   -11.812829    1403.9701 
    6990    148.76854    -11.83204            0   -11.812829    1420.9954 
    7000    147.41169   -11.831865            0   -11.812829    1437.3564 
    7010    146.56882   -11.831756            0   -11.812829    1446.5943 
    7020    146.28634    -11.83172            0   -11.812829    1439.2979 
    7030    146.55634   -11.831755            0   -11.812829    1428.6233 
    7040    147.31391   -11.831852            0   -11.812829    1413.3955 
    7050    148.44114   -11.831998            0   -11.812829    1384.0239 
    7060    149.77713   -11.832171            0   -11.812829    1354.6409 
    7070    151.13979   -11.832346            0   -11.812829    1326.2576 
    7080    152.34393   -11.832502            0   -11.812829    1302.2326 
    7090    153.21893   -11.832615            0   -11.812829    1290.5605 
    7100     153.6189   -11.832667            0   -11.812829     1290.881 
    7110    153.44423   -11.832644            0   -11.812829    1302.0115 
    7120    152.64878   -11.832541            0   -11.812829    1319.7758 
    7130    151.23876   -11.832359            0   -11.812829    1344.6534 
    7140    149.28039   -11.832106            0   -11.812829     1377.648 
    7150    146.89963   -11.831799            0   -11.812829    1418.6778 
    7160    144.26418   -11.831459            0   -11.812829    1463.1325 
    7170    141.57406   -11.831111            0   -11.812829    1512.4783 
    7180    139.05185   -11.830785            0   -11.812829    1568.4921 
    7190    136.91761    -11.83051            0   -11.812829    1627.7212 
    7200    135.36895    -11.83031            0   -11.812829    1677.6549 
    7210    134.56367   -11.830206            0   -11.812829    1717.9069 
    7220    134.60717   -11.830211            0   -11.812829     1746.796 
    7230    135.54279   -11.830332            0   -11.812829    1761.1151 
    7240    137.34468   -11.830565            0   -11.812829    1762.8602 
    7250    139.91746   -11.830897            0   -11.812829    1751.1297 
    7260    143.10412   -11.831309            0   -11.812829     1716.867 
    7270    146.69212   -11.831772            0   -11.812829    1659.8194 
    7280    150.43784   -11.832256            0   -11.812829    1586.4611 
    7290    154.08639   -11.832727            0   -11.812829    1512.5085 
    7300    157.38913   -11.833154            0   -11.812829    1442.3615 
    7310    160.12654   -11.833507            0   -11.812829    1380.4259 
    7320    162.11657   -11.833764            0   -11.812829    1329.2323 
    7330    163.22924   -11.833908            0   -11.812829    1292.0016 
    7340    163.40302    -11.83393            0   -11.812829    1272.2256 
    7350     162.6521   -11.833833            0   -11.812829      1267.91 
    7360    161.06156   -11.833628            0   -11.812829    1269.1203 
    7370    158.77302   -11.833332            0   -11.812829    1286.7277 
    7380    155.97734   -11.832971            0   -11.812829    1312.2152 
    7390    152.89916   -11.832574            0   -11.812829    1340.6224 
    7400    149.77718    -11.83217            0   -11.812829    1372.6797 
    7410    146.84403   -11.831792            0   -11.812829    1404.7465 
    7420    144.30885   -11.831464            0   -11.812829    1435.4169 
    7430    142.34639   -11.831211            0   -11.812829    1467.7384 
    7440    141.08367   -11.831048            0   -11.812829    1500.3487 
    7450    140.58724   -11.830984            0   -11.812829    1521.3893 
    7460    140.86362   -11.831019            0   -11.812829     1531.915 
    7470    141.85987   -11.831148            0   -11.812829    1537.1102 
    7480      143.478   -11.831357            0   -11.812829    1532.3445 
    7490     145.5785   -11.831628            0   -11.812829    1515.0329 
    7500    147.99013    -11.83194            0   -11.812829    1486.3724 
    7510    150.52634   -11.832267            0   -11.812829    1457.3063 
    7520    152.99765   -11.832586            0   -11.812829    1426.0756 
    7530    155.22635   -11.832874            0   -11.812829    1397.8036 
    7540    157.04703   -11.833109            0   -11.812829    1364.5319 
    7550    158.32503   -11.833274            0   -11.812829    1322.2564 
    7560    158.97726   -11.833359            0   -11.812829    1282.3294 
    7570    158.96191   -11.833357            0   -11.812829    1255.7284 
    7580    158.28243   -11.833269            0   -11.812829     1239.721 
    7590    156.97819     -11.8331            0   -11.812829    1231.9325 
    7600    155.13538   -11.832862            0   -11.812829    1226.0329 
    7610    152.87695   -11.832571            0   -11.812829    1230.5639 
    7620    150.34774   -11.832244            0   -11.812829     1247.472 
    7630      147.708   -11.831903            0   -11.812829    1274.2294 
    7640    145.12429    -11.83157            0   -11.812829    1309.8581 
    7650    142.75509   -11.831264            0   -11.812829     1352.221 
    7660    140.74685   -11.831004            0   -11.812829    1391.1262 
    7670    139.22608   -11.830808            0   -11.812829    1423.5701 
    7680    138.28188   -11.830686            0   -11.812829    1453.2317 
    7690    137.96384   -11.830645            0   -11.812829    1481.1094 
    7700    138.28428   -11.830686            0   -11.812829    1497.3818 
    7710    139.22104   -11.830807            0   -11.812829    1510.9858 
    7720    140.71723   -11.831001            0   -11.812829     1525.967 
    7730    142.68301   -11.831254            0   -11.812829    1537.2059 
    7740    145.00191   -11.831554            0   -11.812829    1534.9463 
    7750    147.54084   -11.831882            0   -11.812829    1522.8149 
    7760    150.16184    -11.83222            0   -11.812829    1508.8502 
    7770    152.72222   -11.832551            0   -11.812829    1501.8855 
    7780    155.07853   -11.832855            0   -11.812829    1492.4783 
    7790    157.09896   -11.833116            0   -11.812829     1474.354 
    7800    158.67035   -11.833319            0   -11.812829    1449.4005 
    7810    159.70548   -11.833453            0   -11.812829    1434.7883 
    7820    160.13944   -11.833509            0   -11.812829    1418.0893 
    7830     159.9328   -11.833482            0   -11.812829     1405.179 
    7840    159.07349   -11.833371            0   -11.812829    1400.3916 
    7850    157.59021   -11.833179            0   -11.812829    1399.7304 
    7860    155.54237   -11.832915            0   -11.812829    1402.5001 
    7870    153.02069   -11.832589            0   -11.812829    1411.5379 
    7880    150.14174   -11.832218            0   -11.812829    1423.2143 
    7890    147.04974   -11.831818            0   -11.812829    1434.2922 
    7900    143.90908   -11.831413            0   -11.812829    1446.3799 
    7910    140.89523   -11.831024            0   -11.812829    1454.3404 
    7920    138.18807   -11.830674            0   -11.812829    1464.4074 
    7930    135.96139   -11.830386            0   -11.812829    1466.8016 
    7940    134.36442    -11.83018            0   -11.812829     1462.726 
    7950    133.51408    -11.83007            0   -11.812829    1451.8804 
    7960    133.48537   -11.830067            0   -11.812829    1441.9889 
    7970    134.31182   -11.830173            0   -11.812829    1430.8108 
    7980    135.97457   -11.830388            0   -11.812829    1418.5863 
    7990    138.40007   -11.830701            0   -11.812829    1414.5905 
    8000    141.46058   -11.831097            0   -11.812829    1419.4686 
    8010    144.97776   -11.831551            0   -11.812829    1428.7958 
    8020     148.7367   -11.832036            0   -11.812829    1438.5859 
    8030    152.49413   -11.832521            0   -11.812829     1451.986 
    8040    155.99437   -11.832973            0   -11.812829    1470.5603 
    8050    158.98874    -11.83336            0   -11.812829    1493.1582 
    8060    161.26533   -11.833654            0   -11.812829    1512.3303 
    8070    162.65472   -11.833834            0   -11.812829    1532.5319 
    8080    163.04154   -11.833883            0   -11.812829    1549.8697 
    8090    162.37895   -11.833798            0   -11.812829    1569.5149 
    8100    160.69114    -11.83358            0   -11.812829    1584.1388 
    8110    158.07358   -11.833242            0   -11.812829    1591.7827 
    8120    154.69178   -11.832805            0   -11.812829    1592.8847 
    8130    150.77224   -11.832299            0   -11.812829     1591.097 
    8140    146.57303   -11.831757            0   -11.812829    1594.8429 
    8150    142.38013   -11.831215            0   -11.812829     1596.455 
    8160    138.48482   -11.830712            0   -11.812829    1591.2105 
    8170    135.16032   -11.830283            0   -11.812829    1577.4189 
    8180    132.64342   -11.829958            0   -11.812829    1557.3267 
    8190    131.11846   -11.829761            0   -11.812829    1531.0978 
    8200    130.70691   -11.829708            0   -11.812829    1503.4686 
    8210    131.45619   -11.829805            0   -11.812829    1472.1508 
    8220    133.33727   -11.830047            0   -11.812829    1434.8831 
    8230    136.24892   -11.830423            0   -11.812829    1399.2859 
    8240    140.03009   -11.830912            0   -11.812829    1370.5907 
    8250    144.46512   -11.831485            0   -11.812829    1344.5018 
    8260    149.29984   -11.832109            0   -11.812829    1324.9859 
    8270     154.2591   -11.832749            0   -11.812829    1315.5202 
    8280     159.0637    -11.83337            0   -11.812829     1314.313 
    8290    163.44507   -11.833936            0   -11.812829    1324.8849 
    8300    167.16104   -11.834415            0   -11.812829    1351.5413 
    8310     170.0139   -11.834784            0   -11.812829    1382.7039 
    8320    171.85653   -11.835022            0   -11.812829    1415.4177 
    8330    172.59572   -11.835117            0   -11.812829    1446.8656 
    8340    172.20604   -11.835067            0   -11.812829    1473.1328 
    8350     170.7233   -11.834875            0   -11.812829    1506.0025 
    8360    168.24272   -11.834555            0   -11.812829    1531.8866 
    8370    164.91093   -11.834125            0   -11.812829    1545.4427 
    8380    160.91432   -11.833609            0   -11.812829    1556.5096 
    8390    156.47137   -11.833035            0   -11.812829    1568.0977 
    8400    151.81632   -11.832434            0   -11.812829    1581.0565 
    8410    147.17928   -11.831835            0   -11.812829    1593.1478 
    8420    142.77974   -11.831267            0   -11.812829    1594.7429 
    8430    138.81643   -11.830755            0   -11.812829    1593.4326 
    8440    135.45414   -11.830321            0   -11.812829    1583.8377 
    8450    132.82014   -11.829981            0   -11.812829    1570.0725 
    8460    131.00212   -11.829746            0   -11.812829    1549.4572 
    8470    130.04704   -11.829623            0   -11.812829    1525.7142 
    8480    129.95597   -11.829611            0   -11.812829      1498.07 
    8490    130.68615   -11.829705            0   -11.812829    1472.9644 
    8500    132.15912   -11.829895            0   -11.812829    1459.4907 
    8510     134.2658   -11.830167            0   -11.812829    1451.0978 
    8520    136.86828   -11.830504            0   -11.812829    1450.8082 
    8530    139.81145   -11.830884            0   -11.812829    1455.3449 
    8540    142.93712   -11.831287            0   -11.812829    1457.2629 
    8550    146.09136   -11.831695            0   -11.812829    1452.3301 
    8560    149.13265   -11.832087            0   -11.812829    1442.1156 
    8570    151.94449    -11.83245            0   -11.812829    1433.7777 
    8580    154.43366   -11.832772            0   -11.812829    1436.5162 
    8590    156.53279   -11.833043            0   -11.812829    1443.4327 
    8600    158.20423   -11.833259            0   -11.812829    1450.6913 
    8610    159.44118   -11.833418            0   -11.812829    1457.4373 
    8620    160.26697   -11.833525            0   -11.812829     1462.174 
    8630    160.72957   -11.833585            0   -11.812829    1465.3842 
    8640     160.8879   -11.833605            0   -11.812829    1467.5684 
    8650    160.81159   -11.833595            0   -11.812829    1468.6165 
    8660    160.57198   -11.833564            0   -11.812829    1470.6806 
    8670    160.23517   -11.833521            0   -11.812829    1467.9423 
    8680    159.85884   -11.833472            0   -11.812829    1454.7453 
    8690    159.48341   -11.833424            0   -11.812829    1439.8117 
    8700    159.13757   -11.833379            0   -11.812829    1429.9251 
    8710     158.8241   -11.833339            0   -11.812829    1410.2993 
    8720     158.5277   -11.833301            0   -11.812829    1392.7334 
    8730    158.22153   -11.833261            0   -11.812829    1374.5648 
    8740    157.86132   -11.833214            0   -11.812829    1362.7913 
    8750    157.38625   -11.833153            0   -11.812829     1354.501 
    8760     156.7267   -11.833068            0   -11.812829    1356.0794 
    8770    155.81536    -11.83295            0   -11.812829    1361.9818 
    8780    154.58931   -11.832792            0   -11.812829    1377.2322 
    8790    152.99584   -11.832586            0   -11.812829    1396.2097 
    8800    151.00846    -11.83233            0   -11.812829    1418.1457 
    8810    148.62375   -11.832022            0   -11.812829    1443.5638 
    8820    145.87189   -11.831666            0   -11.812829    1468.6314 
    8830    142.82172   -11.831272            0   -11.812829    1497.8932 
    8840    139.57702   -11.830853            0   -11.812829    1524.1952 
    8850    136.26908   -11.830426            0   -11.812829    1544.3618 
    8860    133.05298   -11.830011            0   -11.812829    1567.1786 
    8870    130.09452   -11.829629            0   -11.812829    1587.7757 
    8880    127.56087   -11.829302            0   -11.812829    1604.8997 
    8890    125.61067    -11.82905            0   -11.812829    1611.0666 
    8900    124.38371   -11.828891            0   -11.812829    1606.5247 
    8910    123.98578    -11.82884            0   -11.812829    1591.5901 
    8920    124.48491   -11.828904            0   -11.812829    1565.5563 
    8930    125.90078   -11.829087            0   -11.812829    1533.1285 
    8940    128.20793   -11.829385            0   -11.812829    1492.3737 
    8950     131.3297   -11.829788            0   -11.812829    1445.4041 
    8960    135.14459   -11.830281            0   -11.812829    1402.5465 
    8970    139.49602   -11.830843            0   -11.812829    1360.9774 
    8980    144.19414    -11.83145            0   -11.812829    1319.0403 
    8990    149.03068   -11.832074            0   -11.812829    1280.1935 
    9000    153.79446   -11.832689            0   -11.812829    1245.6217 
    9010    158.27633   -11.833268            0   -11.812829     1215.747 
    9020     162.2858   -11.833786            0   -11.812829    1200.8995 
    9030    165.65422   -11.834221            0   -11.812829    1200.1556 
    9040    168.24676   -11.834556            0   -11.812829    1211.2151 
    9050    169.96625   -11.834778            0   -11.812829    1234.0911 
    9060    170.75637    -11.83488            0   -11.812829    1262.6858 
    9070    170.60772   -11.834861            0   -11.812829     1292.073 
    9080    169.54966   -11.834724            0   -11.812829    1324.2935 
    9090    167.64406   -11.834478            0   -11.812829    1366.5508 
    9100    164.98822   -11.834135            0   -11.812829    1411.1648 
    9110    161.70947   -11.833711            0   -11.812829    1458.0818 
    9120    157.96257   -11.833228            0   -11.812829    1497.1858 
    9130    153.92565   -11.832706            0   -11.812829     1539.782 
    9140     149.7854   -11.832172            0   -11.812829     1582.035 
    9150    145.73126   -11.831648            0   -11.812829    1612.3598 
    9160    141.95176    -11.83116            0   -11.812829    1635.0762 
    9170    138.62005    -11.83073            0   -11.812829    1646.7832 
    9180    135.88748   -11.830377            0   -11.812829    1649.5569 
    9190    133.87633   -11.830117            0   -11.812829    1651.9224 
    9200    132.66958   -11.829961            0   -11.812829     1640.036 
    9210    132.30786   -11.829915            0   -11.812829    1621.1182 
    9220    132.79264   -11.829977            0   -11.812829    1596.9447 
    9230    134.08906   -11.830145            0   -11.812829    1564.7268 
    9240    136.12011   -11.830407            0   -11.812829    1532.1189 
    9250    138.77516    -11.83075            0   -11.812829    1502.7737 
    9260    141.91709   -11.831155            0   -11.812829    1470.5223 
    9270    145.37647   -11.831602            0   -11.812829    1441.7209 
    9280    148.96382   -11.832065            0   -11.812829    1413.6829 
    9290    152.48298    -11.83252            0   -11.812829    1396.0772 
    9300    155.73656    -11.83294            0   -11.812829     1383.682 
    9310    158.53297   -11.833301            0   -11.812829    1377.2268 
    9320    160.70221   -11.833581            0   -11.812829    1374.8765 
    9330    162.11795   -11.833764            0   -11.812829    1375.8954 
    9340    162.69754   -11.833839            0   -11.812829    1376.6001 
    9350    162.40855   -11.833802            0   -11.812829    1382.6343 
    9360    161.27271   -11.833655            0   -11.812829    1398.0635 
    9370    159.36499   -11.833409            0   -11.812829    1411.6402 
    9380     156.8128   -11.833079            0   -11.812829    1420.6196 
    9390    153.79203   -11.832689            0   -11.812829    1423.8628 
    9400    150.50995   -11.832265            0   -11.812829    1433.2355 
    9410    147.19674   -11.831837            0   -11.812829      1444.33 
    9420    144.08768   -11.831436            0   -11.812829    1454.3419 
    9430    141.40322   -11.831089            0   -11.812829    1459.8584 
    9440    139.33507   -11.830822            0   -11.812829    1466.8924 
    9450    138.03466   -11.830654            0   -11.812829    1465.6398 
    9460    137.60098   -11.830598            0   -11.812829    1459.6738 
    9470     138.0725   -11.830659            0   -11.812829    1445.5803 
    9480    139.42017   -11.830833            0   -11.812829    1439.8308 
    9490    141.55016   -11.831108            0   -11.812829    1440.9624 
    9500    144.31377   -11.831465            0   -11.812829    1438.3514 
    9510    147.51486   -11.831878            0   -11.812829     1438.448 
    9520    150.92394   -11.832319            0   -11.812829     1437.396 
    9530     154.2934   -11.832754            0   -11.812829    1442.0666 
    9540    157.37797   -11.833152            0   -11.812829    1460.5051 
    9550    159.95611   -11.833485            0   -11.812829    1479.7503 
    9560    161.84015   -11.833728            0   -11.812829    1493.0616 
    9570    162.89125   -11.833864            0   -11.812829    1514.9633 
    9580    163.03209   -11.833882            0   -11.812829    1543.2942 
    9590    162.25413   -11.833782            0   -11.812829     1565.425 
    9600     160.6153    -11.83357            0   -11.812829    1579.7672 
    9610    158.23917   -11.833263            0   -11.812829    1590.8628 
    9620    155.30475   -11.832884            0   -11.812829    1599.2721 
    9630    152.03216   -11.832462            0   -11.812829    1596.5376 
    9640    148.67181   -11.832028            0   -11.812829    1585.1102 
    9650    145.48078   -11.831616            0   -11.812829     1561.723 
    9660    142.70022   -11.831257            0   -11.812829    1526.8282 
    9670    140.53696   -11.830977            0   -11.812829    1488.8891 
    9680    139.14241   -11.830797            0   -11.812829    1453.8415 
    9690    138.60717   -11.830728            0   -11.812829    1412.9963 
    9700    138.95181   -11.830773            0   -11.812829    1364.8479 
    9710     140.1213   -11.830924            0   -11.812829    1310.6586 
    9720    141.98657   -11.831164            0   -11.812829    1258.9204 
    9730    144.36046   -11.831471            0   -11.812829    1207.0895 
    9740    147.01296   -11.831814            0   -11.812829    1163.9084 
    9750    149.69348    -11.83216            0   -11.812829    1130.0116 
    9760    152.14465   -11.832476            0   -11.812829    1108.4088 
    9770    154.12921   -11.832733            0   -11.812829    1096.0685 
    9780    155.45242   -11.832903            0   -11.812829    1095.7205 
    9790    155.97482   -11.832971            0   -11.812829    1117.2493 
    9800    155.62982   -11.832926            0   -11.812829    1147.8452 
    9810    154.42145    -11.83277            0   -11.812829    1186.9935 
    9820    152.43564   -11.832514            0   -11.812829    1232.0043 
    9830    149.82754   -11.832177            0   -11.812829    1282.2508 
    9840    146.80851   -11.831787            0   -11.812829    1340.4623 
    9850    143.63017   -11.831377            0   -11.812829    1401.6659 
    9860    140.56928   -11.830981            0   -11.812829    1458.6785 
    9870    137.90488   -11.830637            0   -11.812829    1517.3598 
    9880    135.88718   -11.830377            0   -11.812829    1575.1955 
    9890    134.72378   -11.830227            0   -11.812829    1618.7978 
    9900    134.56011   -11.830205            0   -11.812829    1650.5617 
    9910    135.46438   -11.830322            0   -11.812829     1675.904 
    9920    137.42929   -11.830576            0   -11.812829     1689.312 
    9930    140.36076   -11.830954            0   -11.812829    1684.1897 
    9940    144.09353   -11.831437            0   -11.812829    1669.7972 
    9950    148.39581   -11.831992            0   -11.812829     1654.718 
    9960    152.98837   -11.832585            0   -11.812829    1643.4533 
    9970    157.55904   -11.833175            0   -11.812829    1637.3923 
    9980    161.78561   -11.833721            0   -11.812829    1629.6163 
    9990     165.3583   -11.834183            0   -11.812829    1622.5821 
   10000    168.00935   -11.834525            0   -11.812829     1619.171 
Loop time of 6.77725 on 1 procs for 10000 steps with 1024 atoms

Performance: 63.743 ns/day, 0.377 hours/ns, 1475.525 timesteps/s
76.2% CPU use with 1 MPI tasks x 1 OpenMP threads

MPI task timing breakdown:
Section |  min time  |  avg time  |  max time  |%varavg| %total
---------------------------------------------------------------
Pair    | 5.6945     | 5.6945     | 5.6945     |   0.0 | 84.02
Neigh   | 0          | 0          | 0          |   0.0 |  0.00
Comm    | 0.42561    | 0.42561    | 0.42561    |   0.0 |  6.28
Output  | 0.046047   | 0.046047   | 0.046047   |   0.0 |  0.68
Modify  | 0.22638    | 0.22638    | 0.22638    |   0.0 |  3.34
Other   |            | 0.3847     |            |       |  5.68

Nlocal:        1024.00 ave        1024 max        1024 min
Histogram: 1 0 0 0 0 0 0 0 0 0
Nghost:        2035.00 ave        2035 max        2035 min
Histogram: 1 0 0 0 0 0 0 0 0 0
Neighs:        29696.0 ave       29696 max       29696 min
Histogram: 1 0 0 0 0 0 0 0 0 0
FullNghs:      59392.0 ave       59392 max       59392 min
Histogram: 1 0 0 0 0 0 0 0 0 0

Total # of neighbors = 59392
Ave neighs/atom = 58.000000
Neighbor list builds = 0
Dangerous builds = 0
Total wall time: 0:00:09
