ITEM: TIMESTEP
0
ITEM: NUMBER OF ATOMS
256
ITEM: BOX BOUNDS xy xz yz pp pp pp
0.0000000000000000e+00 1.7864000000000001e+01 0.0000000000000000e+00
0.0000000000000000e+00 1.7864000000000001e+01 0.0000000000000000e+00
0.0000000000000000e+00 1.7864000000000001e+01 0.0000000000000000e+00
ITEM: ATOMS id type xs ys zs x y z
1 1 0 0 0 0 0 0
2 1 0.125 0.125 0 2.233 2.233 0
3 1 0.125 0 0.125 2.233 0 2.233
4 1 0 0.125 0.125 0 2.233 2.233
5 1 0.25 0 0 4.466 0 0
6 1 0.375 0.125 0 6.699 2.233 0
7 1 0.375 0 0.125 6.699 0 2.233
8 1 0.25 0.125 0.125 4.466 2.233 2.233
9 1 0.5 0 0 8.932 0 0
10 1 0.625 0.125 0 11.165 2.233 0
11 1 0.625 0 0.125 11.165 0 2.233
12 1 0.5 0.125 0.125 8.932 2.233 2.233
13 1 0.75 0 0 13.398 0 0
14 1 0.875 0.125 0 15.631 2.233 0
15 1 0.875 0 0.125 15.631 0 2.233
16 1 0.75 0.125 0.125 13.398 2.233 2.233
17 1 0 0.25 0 0 4.466 0
18 1 0.125 0.375 0 2.233 6.699 0
19 1 0.125 0.25 0.125 2.233 4.466 2.233
20 1 0 0.375 0.125 0 6.699 2.233
21 1 0.25 0.25 0 4.466 4.466 0
22 1 0.375 0.375 0 6.699 6.699 0
23 1 0.375 0.25 0.125 6.699 4.466 2.233
24 1 0.25 0.375 0.125 4.466 6.699 2.233
25 1 0.5 0.25 0 8.932 4.466 0
26 1 0.625 0.375 0 11.165 6.699 0
27 1 0.625 0.25 0.125 11.165 4.466 2.233
28 1 0.5 0.375 0.125 8.932 6.699 2.233
29 1 0.75 0.25 0 13.398 4.466 0
30 1 0.875 0.375 0 15.631 6.699 0
31 1 0.875 0.25 0.125 15.631 4.466 2.233
32 1 0.75 0.375 0.125 13.398 6.699 2.233
33 1 0 0.5 0 0 8.932 0
34 1 0.125 0.625 0 2.233 11.165 0
35 1 0.125 0.5 0.125 2.233 8.932 2.233
36 1 0 0.625 0.125 0 11.165 2.233
37 1 0.25 0.5 0 4.466 8.932 0
38 1 0.375 0.625 0 6.699 11.165 0
39 1 0.375 0.5 0.125 6.699 8.932 2.233
40 1 0.25 0.625 0.125 4.466 11.165 2.233
41 1 0.5 0.5 0 8.932 8.932 0
42 1 0.625 0.625 0 11.165 11.165 0
43 1 0.625 0.5 0.125 11.165 8.932 2.233
44 1 0.5 0.625 0.125 8.932 11.165 2.233
45 1 0.75 0.5 0 13.398 8.932 0
46 1 0.875 0.625 0 15.631 11.165 0
47 1 0.875 0.5 0.125 15.631 8.932 2.233
48 1 0.75 0.625 0.125 13.398 11.165 2.233
49 1 0 0.75 0 0 13.398 0
50 1 0.125 0.875 0 2.233 15.631 0
51 1 0.125 0.75 0.125 2.233 13.398 2.233
52 1 0 0.875 0.125 0 15.631 2.233
53 1 0.25 0.75 0 4.466 13.398 0
54 1 0.375 0.875 0 6.699 15.631 0
55 1 0.375 0.75 0.125 6.699 13.398 2.233
56 1 0.25 0.875 0.125 4.466 15.631 2.233
57 1 0.5 0.75 0 8.932 13.398 0
58 1 0.625 0.875 0 11.165 15.631 0
59 1 0.625 0.75 0.125 11.165 13.398 2.233
60 1 0.5 0.875 0.125 8.932 15.631 2.233
61 1 0.75 0.75 0 13.398 13.398 0
62 1 0.875 0.875 0 15.631 15.631 0
63 1 0.875 0.75 0.125 15.631 13.398 2.233
64 1 0.75 0.875 0.125 13.398 15.631 2.233
65 1 0 0 0.25 0 0 4.466
66 1 0.125 0.125 0.25 2.233 2.233 4.466
67 1 0.125 0 0.375 2.233 0 6.699
68 1 0 0.125 0.375 0 2.233 6.699
69 1 0.25 0 0.25 4.466 0 4.466
70 1 0.375 0.125 0.25 6.699 2.233 4.466
71 1 0.375 0 0.375 6.699 0 6.699
72 1 0.25 0.125 0.375 4.466 2.233 6.699
73 1 0.5 0 0.25 8.932 0 4.466
74 1 0.625 0.125 0.25 11.165 2.233 4.466
75 1 0.625 0 0.375 11.165 0 6.699
76 1 0.5 0.125 0.375 8.932 2.233 6.699
77 1 0.75 0 0.25 13.398 0 4.466
78 1 0.875 0.125 0.25 15.631 2.233 4.466
79 1 0.875 0 0.375 15.631 0 6.699
80 1 0.75 0.125 0.375 13.398 2.233 6.699
81 1 0 0.25 0.25 0 4.466 4.466
82 1 0.125 0.375 0.25 2.233 6.699 4.466
83 1 0.125 0.25 0.375 2.233 4.466 6.699
84 1 0 0.375 0.375 0 6.699 6.699
85 1 0.25 0.25 0.25 4.466 4.466 4.466
86 1 0.375 0.375 0.25 6.699 6.699 4.466
87 1 0.375 0.25 0.375 6.699 4.466 6.699
88 1 0.25 0.375 0.375 4.466 6.699 6.699
89 1 0.5 0.25 0.25 8.932 4.466 4.466
90 1 0.625 0.375 0.25 11.165 6.699 4.466
91 1 0.625 0.25 0.375 11.165 4.466 6.699
92 1 0.5 0.375 0.375 8.932 6.699 6.699
93 1 0.75 0.25 0.25 13.398 4.466 4.466
94 1 0.875 0.375 0.25 15.631 6.699 4.466
95 1 0.875 0.25 0.375 15.631 4.466 6.699
96 1 0.75 0.375 0.375 13.398 6.699 6.699
97 1 0 0.5 0.25 0 8.932 4.466
98 1 0.125 0.625 0.25 2.233 11.165 4.466
99 1 0.125 0.5 0.375 2.233 8.932 6.699
100 1 0 0.625 0.375 0 11.165 6.699
101 1 0.25 0.5 0.25 4.466 8.932 4.466
102 1 0.375 0.625 0.25 6.699 11.165 4.466
103 1 0.375 0.5 0.375 6.699 8.932 6.699
104 1 0.25 0.625 0.375 4.466 11.165 6.699
105 1 0.5 0.5 0.25 8.932 8.932 4.466
106 1 0.625 0.625 0.25 11.165 11.165 4.466
107 1 0.625 0.5 0.375 11.165 8.932 6.699
108 1 0.5 0.625 0.375 8.932 11.165 6.699
109 1 0.75 0.5 0.25 13.398 8.932 4.466
110 1 0.875 0.625 0.25 15.631 11.165 4.466
111 1 0.875 0.5 0.375 15.631 8.932 6.699
112 1 0.75 0.625 0.375 13.398 11.165 6.699
113 1 0 0.75 0.25 0 13.398 4.466
114 1 0.125 0.875 0.25 2.233 15.631 4.466
115 1 0.125 0.75 0.375 2.233 13.398 6.699
116 1 0 0.875 0.375 0 15.631 6.699
117 1 0.25 0.75 0.25 4.466 13.398 4.466
118 1 0.375 0.875 0.25 6.699 15.631 4.466
119 1 0.375 0.75 0.375 6.699 13.398 6.699
120 1 0.25 0.875 0.375 4.466 15.631 6.699
121 1 0.5 0.75 0.25 8.932 13.398 4.466
122 1 0.625 0.875 0.25 11.165 15.631 4.466
123 1 0.625 0.75 0.375 11.165 13.398 6.699
124 1 0.5 0.875 0.375 8.932 15.631 6.699
125 1 0.75 0.75 0.25 13.398 13.398 4.466
126 1 0.875 0.875 0.25 15.631 15.631 4.466
127 1 0.875 0.75 0.375 15.631 13.398 6.699
128 1 0.75 0.875 0.375 13.398 15.631 6.699
129 1 0 0 0.5 0 0 8.932
130 1 0.125 0.125 0.5 2.233 2.233 8.932
131 1 0.125 0 0.625 2.233 0 11.165
132 1 0 0.125 0.625 0 2.233 11.165
133 1 0.25 0 0.5 4.466 0 8.932
134 1 0.375 0.125 0.5 6.699 2.233 8.932
135 1 0.375 0 0.625 6.699 0 11.165
136 1 0.25 0.125 0.625 4.466 2.233 11.165
137 1 0.5 0 0.5 8.932 0 8.932
138 1 0.625 0.125 0.5 11.165 2.233 8.932
139 1 0.625 0 0.625 11.165 0 11.165
140 1 0.5 0.125 0.625 8.932 2.233 11.165
141 1 0.75 0 0.5 13.398 0 8.932
142 1 0.875 0.125 0.5 15.631 2.233 8.932
143 1 0.875 0 0.625 15.631 0 11.165
144 1 0.75 0.125 0.625 13.398 2.233 11.165
145 1 0 0.25 0.5 0 4.466 8.932
146 1 0.125 0.375 0.5 2.233 6.699 8.932
147 1 0.125 0.25 0.625 2.233 4.466 11.165
148 1 0 0.375 0.625 0 6.699 11.165
149 1 0.25 0.25 0.5 4.466 4.466 8.932
150 1 0.375 0.375 0.5 6.699 6.699 8.932
151 1 0.375 0.25 0.625 6.699 4.466 11.165
152 1 0.25 0.375 0.625 4.466 6.699 11.165
153 1 0.5 0.25 0.5 8.932 4.466 8.932
154 1 0.625 0.375 0.5 11.165 6.699 8.932
155 1 0.625 0.25 0.625 11.165 4.466 11.165
156 1 0.5 0.375 0.625 8.932 6.699 11.165
157 1 0.75 0.25 0.5 13.398 4.466 8.932
158 1 0.875 0.375 0.5 15.631 6.699 8.932
159 1 0.875 0.25 0.625 15.631 4.466 11.165
160 1 0.75 0.375 0.625 13.398 6.699 11.165
161 1 0 0.5 0.5 0 8.932 8.932
162 1 0.125 0.625 0.5 2.233 11.165 8.932
163 1 0.125 0.5 0.625 2.233 8.932 11.165
164 1 0 0.625 0.625 0 11.165 11.165
165 1 0.25 0.5 0.5 4.466 8.932 8.932
166 1 0.375 0.625 0.5 6.699 11.165 8.932
167 1 0.375 0.5 0.625 6.699 8.932 11.165
168 1 0.25 0.625 0.625 4.466 11.165 11.165
169 1 0.5 0.5 0.5 8.932 8.932 8.932
170 1 0.625 0.625 0.5 11.165 11.165 8.932
171 1 0.625 0.5 0.625 11.165 8.932 11.165
172 1 0.5 0.625 0.625 8.932 11.165 11.165
173 1 0.75 0.5 0.5 13.398 8.932 8.932
174 1 0.875 0.625 0.5 15.631 11.165 8.932
175 1 0.875 0.5 0.625 15.631 8.932 11.165
176 1 0.75 0.625 0.625 13.398 11.165 11.165
177 1 0 0.75 0.5 0 13.398 8.932
178 1 0.125 0.875 0.5 2.233 15.631 8.932
179 1 0.125 0.75 0.625 2.233 13.398 11.165
180 1 0 0.875 0.625 0 15.631 11.165
181 1 0.25 0.75 0.5 4.466 13.398 8.932
182 1 0.375 0.875 0.5 6.699 15.631 8.932
183 1 0.375 0.75 0.625 6.699 13.398 11.165
184 1 0.25 0.875 0.625 4.466 15.631 11.165
185 1 0.5 0.75 0.5 8.932 13.398 8.932
186 1 0.625 0.875 0.5 11.165 15.631 8.932
187 1 0.625 0.75 0.625 11.165 13.398 11.165
188 1 0.5 0.875 0.625 8.932 15.631 11.165
189 1 0.75 0.75 0.5 13.398 13.398 8.932
190 1 0.875 0.875 0.5 15.631 15.631 8.932
191 1 0.875 0.75 0.625 15.631 13.398 11.165
192 1 0.75 0.875 0.625 13.398 15.631 11.165
193 1 0 0 0.75 0 0 13.398
194 1 0.125 0.125 0.75 2.233 2.233 13.398
195 1 0.125 0 0.875 2.233 0 15.631
196 1 0 0.125 0.875 0 2.233 15.631
197 1 0.25 0 0.75 4.466 0 13.398
198 1 0.375 0.125 0.75 6.699 2.233 13.398
199 1 0.375 0 0.875 6.699 0 15.631
200 1 0.25 0.125 0.875 4.466 2.233 15.631
201 1 0.5 0 0.75 8.932 0 13.398
202 1 0.625 0.125 0.75 11.165 2.233 13.398
203 1 0.625 0 0.875 11.165 0 15.631
204 1 0.5 0.125 0.875 8.932 2.233 15.631
205 1 0.75 0 0.75 13.398 0 13.398
206 1 0.875 0.125 0.75 15.631 2.233 13.398
207 1 0.875 0 0.875 15.631 0 15.631
208 1 0.75 0.125 0.875 13.398 2.233 15.631
209 1 0 0.25 0.75 0 4.466 13.398
210 1 0.125 0.375 0.75 2.233 6.699 13.398
211 1 0.125 0.25 0.875 2.233 4.466 15.631
212 1 0 0.375 0.875 0 6.699 15.631
213 1 0.25 0.25 0.75 4.466 4.466 13.398
214 1 0.375 0.375 0.75 6.699 6.699 13.398
215 1 0.375 0.25 0.875 6.699 4.466 15.631
216 1 0.25 0.375 0.875 4.466 6.699 15.631
217 1 0.5 0.25 0.75 8.932 4.466 13.398
218 1 0.625 0.375 0.75 11.165 6.699 13.398
219 1 0.625 0.25 0.875 11.165 4.466 15.631
220 1 0.5 0.375 0.875 8.932 6.699 15.631
221 1 0.75 0.25 0.75 13.398 4.466 13.398
222 1 0.875 0.375 0.75 15.631 6.699 13.398
223 1 0.875 0.25 0.875 15.631 4.466 15.631
224 1 0.75 0.375 0.875 13.398 6.699 15.631
225 1 0 0.5 0.75 0 8.932 13.398
226 1 0.125 0.625 0.75 2.233 11.165 13.398
227 1 0.125 0.5 0.875 2.233 8.932 15.631
228 1 0 0.625 0.875 0 11.165 15.631
229 1 0.25 0.5 0.75 4.466 8.932 13.398
230 1 0.375 0.625 0.75 6.699 11.165 13.398
231 1 0.375 0.5 0.875 6.699 8.932 15.631
232 1 0.25 0.625 0.875 4.466 11.165 15.631
233 1 0.5 0.5 0.75 8.932 8.932 13.398
234 1 0.625 0.625 0.75 11.165 11.165 13.398
235 1 0.625 0.5 0.875 11.165 8.932 15.631
236 1 0.5 0.625 0.875 8.932 11.165 15.631
237 1 0.75 0.5 0.75 13.398 8.932 13.398
238 1 0.875 0.625 0.75 15.631 11.165 13.398
239 1 0.875 0.5 0.875 15.631 8.932 15.631
240 1 0.75 0.625 0.875 13.398 11.165 15.631
241 1 0 0.75 0.75 0 13.398 13.398
242 1 0.125 0.875 0.75 2.233 15.631 13.398
243 1 0.125 0.75 0.875 2.233 13.398 15.631
244 1 0 0.875 0.875 0 15.631 15.631
245 1 0.25 0.75 0.75 4.466 13.398 13.398
246 1 0.375 0.875 0.75 6.699 15.631 13.398
247 1 0.375 0.75 0.875 6.699 13.398 15.631
248 1 0.25 0.875 0.875 4.466 15.631 15.631
249 1 0.5 0.75 0.75 8.932 13.398 13.398
250 1 0.625 0.875 0.75 11.165 15.631 13.398
251 1 0.625 0.75 0.875 11.165 13.398 15.631
252 1 0.5 0.875 0.875 8.932 15.631 15.631
253 1 0.75 0.75 0.75 13.398 13.398 13.398
254 1 0.875 0.875 0.75 15.631 15.631 13.398
255 1 0.875 0.75 0.875 15.631 13.398 15.631
256 1 0.75 0.875 0.875 13.398 15.631 15.631
ITEM: TIMESTEP
250
ITEM: NUMBER OF ATOMS
256
ITEM: BOX BOUNDS xy xz yz pp pp pp
0.0000000000000000e+00 1.7864000000000001e+01 0.0000000000000000e+00
0.0000000000000000e+00 1.7864000000000001e+01 0.0000000000000000e+00
0.0000000000000000e+00 1.7864000000000001e+01 0.0000000000000000e+00
ITEM: ATOMS id type xs ys zs x y z
1 1 0.00613114 0.000416431 0.00204951 0.109527 0.00743912 0.0366124
2 1 0.127281 0.128822 0.00154347 2.27374 2.30128 0.0275725
3 1 0.128519 -0.00107238 0.127357 2.29587 -0.019157 2.27511
4 1 0.00454741 0.124567 0.118623 0.0812349 2.22527 2.11908
5 1 0.249073 0.00260338 -0.00661514 4.44944 0.0465068 -0.118173
6 1 0.379131 0.12348 -0.000487745 6.7728 2.20585 -0.00871308
7 1 0.37186 0.000500059 0.121654 6.64291 0.00893306 2.17322
8 1 0.247037 0.121611 0.126261 4.41306 2.17246 2.25552
9 1 0.498572 2.28582e-05 0.00139393 8.9065 0.00040834 0.0249012
10 1 0.628419 0.120605 7.6309e-05 11.2261 2.15448 0.00136318
11 1 0.629932 0.00215706 0.130757 11.2531 0.0385336 2.33583
12 1 0.509298 0.124411 0.121271 9.09809 2.22248 2.16638
13 1 0.746766 0.000906378 -0.00161438 13.3402 0.0161915 -0.0288393
14 1 0.881527 0.125293 -0.00261703 15.7476 2.23823 -0.0467506
15 1 0.875477 -0.0048117 0.121552 15.6395 -0.0859563 2.1714
16 1 0.755622 0.122158 0.124314 13.4984 2.18224 2.22075
17 1 -0.00621763 0.25778 0.00506324 -0.111072 4.60498 0.0904497
18 1 0.116481 0.382256 -0.00251505 2.08082 6.82862 -0.0449289
19 1 0.127177 0.25268 0.121065 2.27188 4.51387 2.16271
20 1 0.00357122 0.376101 0.125358 0.0637963 6.71867 2.2394
21 1 0.249044 0.253949 -0.00055611 4.44892 4.53655 -0.00993435
22 1 0.372969 0.372883 -0.00602004 6.66272 6.66119 -0.107542
23 1 0.372621 0.249308 0.125925 6.6565 4.45363 2.24953
24 1 0.245146 0.375898 0.12419 4.37929 6.71504 2.21854
25 1 0.498049 0.253149 0.00205758 8.89715 4.52225 0.0367566
26 1 0.626303 0.383349 -0.000671512 11.1883 6.84815 -0.0119959
27 1 0.624098 0.252253 0.127861 11.1489 4.50625 2.28411
28 1 0.495005 0.374491 0.120686 8.84277 6.68991 2.15593
29 1 0.754272 0.248804 -0.00202246 13.4743 4.44464 -0.0361292
30 1 0.878927 0.37959 -0.000621508 15.7011 6.781 -0.0111026
31 1 0.87712 0.248015 0.12901 15.6689 4.43055 2.30464
32 1 0.753612 0.380554 0.125481 13.4625 6.79821 2.2416
33 1 -0.00200436 0.503458 -0.00303641 -0.0358059 8.99378 -0.0542424
34 1 0.124908 0.626617 -0.00304888 2.23136 11.1939 -0.0544653
35 1 0.131054 0.500827 0.122336 2.34114 8.94677 2.18541
36 1 0.00114351 0.624829 0.122625 0.0204277 11.1619 2.19058
37 1 0.251492 0.500113 0.00293708 4.49265 8.93403 0.052468
38 1 0.369954 0.624603 0.00559849 6.60886 11.1579 0.100011
39 1 0.371186 0.502811 0.121744 6.63087 8.98222 2.17484
40 1 0.250936 0.631229 0.12807 4.48271 11.2763 2.28784
41 1 0.501458 0.500046 0.00485712 8.95805 8.93282 0.0867676
42 1 0.623268 0.621403 -0.00225243 11.1341 11.1007 -0.0402374
43 1 0.629117 0.496874 0.124586 11.2385 8.87615 2.2256
44 1 0.503436 0.624898 0.12702 8.99338 11.1632 2.26909
45 1 0.753727 0.506819 -0.00824967 13.4646 9.05382 -0.147372
46 1 0.879262 0.622381 0.00370221 15.7071 11.1182 0.0661363
47 1 0.873367 0.500415 0.125904 15.6018 8.93941 2.24916
48 1 0.752623 0.625031 0.124429 13.4449 11.1655 2.22279
49 1 0.0035747 0.754413 0.000458477 0.0638585 13.4768 0.00819024
50 1 0.124083 0.877029 -0.00296212 2.21663 15.6672 -0.0529154
51 1 0.124941 0.753004 0.125803 2.23194 13.4517 2.24734
52 1 0.00195697 0.878403 0.127876 0.0349593 15.6918 2.28437
53 1 0.250792 0.754263 -0.00178234 4.48015 13.4742 -0.0318398
54 1 0.373778 0.87546 0.00292669 6.67716 15.6392 0.0522824
55 1 0.378648 0.74671 0.124528 6.76417 13.3392 2.22457
56 1 0.248753 0.870017 0.125804 4.44372 15.542 2.24737
57 1 0.500967 0.742844 0.00383943 8.94927 13.2702 0.0685876
58 1 0.622456 0.877732 0.00233903 11.1196 15.6798 0.0417845
59 1 0.621287 0.748767 0.121241 11.0987 13.376 2.16585
60 1 0.501019 0.875515 0.116781 8.9502 15.6402 2.08617
61 1 0.744602 0.752407 -0.00294074 13.3016 13.441 -0.0525333
62 1 0.881982 0.872534 0.00474921 15.7557 15.5869 0.0848399
63 1 0.872347 0.747793 0.130192 15.5836 13.3586 2.32575
64 1 0.749195 0.869339 0.118764 13.3836 15.5299 2.1216
65 1 0.000806203 0.00458718 0.253995 0.014402 0.0819453 4.53737
66 1 0.121526 0.118931 0.254628 2.17094 2.12459 4.54867
67 1 0.124619 -0.00415939 0.378868 2.2262 -0.0743033 6.76811
68 1 -0.00849497 0.122935 0.375352 -0.151754 2.1961 6.70529
69 1 0.252313 -0.00748987 0.247671 4.50733 -0.133799 4.42439
70 1 0.371721 0.126016 0.246857 6.64043 2.25115 4.40986
71 1 0.37318 -0.00220954 0.375697 6.66648 -0.0394712 6.71145
72 1 0.25624 0.119446 0.372971 4.57748 2.13379 6.66275
73 1 0.499362 -2.34654e-05 0.251994 8.9206 -0.000419185 4.50162
74 1 0.624831 0.12745 0.255875 11.162 2.27677 4.57094
75 1 0.626922 -0.00045233 0.378068 11.1993 -0.00808043 6.75382
76 1 0.496493 0.119637 0.378486 8.86935 2.1372 6.76128
77 1 0.74819 -0.00525374 0.25506 13.3657 -0.0938529 4.55639
78 1 0.869522 0.128469 0.241825 15.5331 2.29498 4.31995
79 1 0.874894 0.00192243 0.377255 15.6291 0.0343422 6.73929
80 1 0.746443 0.123362 0.371009 13.3345 2.20375 6.6277
81 1 0.00304802 0.24881 0.247531 0.0544498 4.44474 4.4219
82 1 0.127292 0.373918 0.252998 2.27394 6.67967 4.51956
83 1 0.125758 0.24717 0.373025 2.24653 4.41545 6.66372
84 1 -0.00611413 0.371063 0.375551 -0.109223 6.62867 6.70884
85 1 0.251842 0.253656 0.242682 4.49891 4.53132 4.33526
86 1 0.375886 0.378259 0.247161 6.71483 6.75722 4.41529
87 1 0.369453 0.250837 0.374033 6.59991 4.48095 6.68172
88 1 0.252081 0.369861 0.370432 4.50318 6.6072 6.6174
89 1 0.497911 0.244432 0.257323 8.89469 4.36653 4.59681
90 1 0.629898 0.380543 0.255357 11.2525 6.79802 4.5617
91 1 0.621561 0.25386 0.372151 11.1036 4.53496 6.6481
92 1 0.500296 0.377628 0.373281 8.93728 6.74596 6.6683
93 1 0.747791 0.25361 0.247146 13.3585 4.53048 4.41502
94 1 0.871943 0.378706 0.247062 15.5764 6.76521 4.41352
95 1 0.876816 0.24829 0.370079 15.6634 4.43545 6.61109
96 1 0.751851 0.378531 0.370721 13.4311 6.76208 6.62255
97 1 -0.00279989 0.497464 0.244511 -0.0500172 8.8867 4.36794
98 1 0.116802 0.626994 0.253341 2.08654 11.2006 4.52568
99 1 0.123717 0.495284 0.374241 2.21007 8.84775 6.68545
100 1 -0.000949717 0.621165 0.37544 -0.0169658 11.0965 6.70686
101 1 0.25042 0.502773 0.258509 4.4735 8.98153 4.618
102 1 0.380529 0.624009 0.252813 6.79778 11.1473 4.51625
103 1 0.375788 0.496555 0.37516 6.71308 8.87046 6.70186
104 1 0.250777 0.630577 0.37129 4.47987 11.2646 6.63273
105 1 0.498726 0.500219 0.249213 8.90924 8.93591 4.45194
106 1 0.621967 0.623534 0.249273 11.1108 11.1388 4.45301
107 1 0.622116 0.494723 0.383444 11.1135 8.83774 6.84984
108 1 0.495797 0.627593 0.375506 8.85692 11.2113 6.70804
109 1 0.749895 0.505331 0.252604 13.3961 9.02724 4.51252
110 1 0.879094 0.626392 0.254002 15.7041 11.1899 4.53749
111 1 0.877106 0.50043 0.377151 15.6686 8.93968 6.73742
112 1 0.748508 0.624918 0.375757 13.3713 11.1635 6.71252
113 1 -0.00488079 0.753333 0.243146 -0.0871904 13.4575 4.34356
114 1 0.123807 0.875975 0.251483 2.21169 15.6484 4.49249
115 1 0.118063 0.748296 0.373037 2.10907 13.3676 6.66393
116 1 0.000615019 0.874424 0.378412 0.0109867 15.6207 6.75995
117 1 0.250459 0.751126 0.24947 4.4742 13.4181 4.45654
118 1 0.380044 0.871238 0.244855 6.78911 15.5638 4.3741
119 1 0.375078 0.750147 0.372865 6.7004 13.4006 6.66086
120 1 0.245382 0.878345 0.372738 4.38351 15.6908 6.65859
121 1 0.506244 0.748486 0.252278 9.04355 13.3709 4.5067
122 1 0.628217 0.874155 0.247867 11.2225 15.6159 4.4279
123 1 0.623337 0.754121 0.377885 11.1353 13.4716 6.75053
124 1 0.496954 0.876279 0.372298 8.87759 15.6538 6.65072
125 1 0.746209 0.748234 0.246057 13.3303 13.3664 4.39556
126 1 0.873519 0.875577 0.248501 15.6045 15.6413 4.43922
127 1 0.877881 0.749477 0.375765 15.6825 13.3887 6.71267
128 1 0.753865 0.871346 0.373834 13.467 15.5657 6.67818
129 1 0.000946607 0.00359233 0.507651 0.0169102 0.0641733 9.06868
130 1 0.123107 0.127136 0.496124 2.19917 2.27116 8.86276
131 1 0.12701 -0.00172688 0.624701 2.26892 -0.0308489 11.1597
132 1 -0.00019016 0.123443 0.634015 -0.00339701 2.20519 11.326
133 1 0.246076 -0.00278868 0.502825 4.39589 -0.0498169 8.98246
134 1 0.37772 0.128817 0.502526 6.74758 2.30119 8.97712
135 1 0.373429 0.00530098 0.622904 6.67094 0.0946967 11.1276
136 1 0.248769 0.130557 0.624212 4.444 2.33228 11.1509
137 1 0.495997 -0.00405482 0.498306 8.86049 -0.0724353 8.90175
138 1 0.624366 0.121406 0.494829 11.1537 2.16879 8.83962
139 1 0.631368 0.000721723 0.625696 11.2788 0.0128929 11.1774
140 1 0.50543 0.115617 0.628344 9.02901 2.06539 11.2247
141 1 0.746297 -0.00212274 0.496477 13.3318 -0.0379206 8.86907
142 1 0.869958 0.122542 0.506491 15.5409 2.1891 9.04795
143 1 0.873713 -0.00208381 0.628979 15.608 -0.0372251 11.2361
144 1 0.755734 0.12625 0.623017 13.5004 2.25533 11.1296
145 1 -0.00197194 0.248467 0.501219 -0.0352267 4.43861 8.95377
146 1 0.120166 0.369768 0.49239 2.14665 6.60554 8.79606
147 1 0.121509 0.254074 0.624787 2.17063 4.53878 11.1612
148 1 -0.00275274 0.377352 0.62312 -0.049175 6.74102 11.1314
149 1 0.251087 0.246392 0.503295 4.48541 4.40155 8.99086
150 1 0.379537 0.371671 0.49811 6.78005 6.63954 8.89823
151 1 0.378527 0.250239 0.628125 6.76201 4.47027 11.2208
152 1 0.253325 0.368686 0.624607 4.5254 6.58621 11.158
153 1 0.504852 0.245334 0.502164 9.01867 4.38265 8.97066
154 1 0.623146 0.37968 0.503609 11.1319 6.7826 8.99648
155 1 0.632565 0.251366 0.622016 11.3001 4.4904 11.1117
156 1 0.494488 0.369332 0.624923 8.83353 6.59775 11.1636
157 1 0.749487 0.25203 0.498052 13.3888 4.50226 8.8972
158 1 0.877098 0.381125 0.501151 15.6685 6.80842 8.95255
159 1 0.877091 0.24926 0.625831 15.6684 4.45278 11.1799
160 1 0.746996 0.374211 0.628959 13.3443 6.68491 11.2357
161 1 0.00692045 0.50303 0.498501 0.123627 8.98613 8.90522
162 1 0.124467 0.625773 0.493448 2.22347 11.1788 8.81495
163 1 0.130822 0.495352 0.622936 2.337 8.84896 11.1281
164 1 0.000534759 0.62233 0.625279 0.00955294 11.1173 11.17
165 1 0.251908 0.492347 0.497923 4.50009 8.79528 8.89491
166 1 0.37584 0.622314 0.500213 6.71401 11.117 8.9358
167 1 0.376651 0.499757 0.627904 6.72849 8.92767 11.2169
168 1 0.251053 0.62068 0.617785 4.48481 11.0878 11.0361
169 1 0.497147 0.505275 0.501401 8.88104 9.02624 8.95703
170 1 0.622486 0.618649 0.500699 11.1201 11.0515 8.94448
171 1 0.623799 0.494776 0.626843 11.1435 8.83868 11.1979
172 1 0.50061 0.623803 0.626841 8.94289 11.1436 11.1979
173 1 0.75031 0.493448 0.501048 13.4035 8.81496 8.95072
174 1 0.87526 0.625628 0.496769 15.6357 11.1762 8.87428
175 1 0.876185 0.498301 0.619077 15.6522 8.90166 11.0592
176 1 0.745278 0.622491 0.622347 13.3136 11.1202 11.1176
177 1 -0.00506148 0.751779 0.507513 -0.0904182 13.4298 9.06621
178 1 0.122681 0.8707 0.498044 2.19157 15.5542 8.89706
179 1 0.12475 0.742969 0.623183 2.22853 13.2724 11.1325
180 1 -0.00216918 0.875092 0.626531 -0.0387502 15.6326 11.1923
181 1 0.247664 0.75415 0.497502 4.42427 13.4721 8.88737
182 1 0.375086 0.874569 0.499766 6.70053 15.6233 8.92783
183 1 0.370367 0.752799 0.628511 6.61624 13.448 11.2277
184 1 0.249939 0.876129 0.627775 4.46491 15.6512 11.2146
185 1 0.499055 0.74869 0.505578 8.91511 13.3746 9.03164
186 1 0.616391 0.874723 0.500346 11.0112 15.626 8.93818
187 1 0.62778 0.751215 0.627477 11.2147 13.4197 11.2093
188 1 0.505388 0.87932 0.626001 9.02825 15.7082 11.1829
189 1 0.746576 0.751655 0.497465 13.3368 13.4276 8.88672
190 1 0.874668 0.874559 0.499038 15.6251 15.6231 8.91481
191 1 0.876579 0.744937 0.622379 15.6592 13.3076 11.1182
192 1 0.754263 0.871995 0.629609 13.4742 15.5773 11.2473
193 1 -0.0022063 -0.00358261 0.755481 -0.0394134 -0.0639997 13.4959
194 1 0.122109 0.121585 0.748944 2.18135 2.17199 13.3791
195 1 0.119591 0.00291926 0.875284 2.13638 0.0521497 15.6361
196 1 -0.00378664 0.124612 0.874215 -0.0676446 2.22607 15.617
197 1 0.244396 0.00114676 0.755041 4.36589 0.0204857 13.488
198 1 0.373358 0.124077 0.752268 6.66967 2.21651 13.4385
199 1 0.374062 0.00123484 0.872763 6.68224 0.0220593 15.591
200 1 0.254477 0.125157 0.878625 4.54598 2.23581 15.6958
201 1 0.495876 0.000379688 0.751081 8.85833 0.00678275 13.4173
202 1 0.625157 0.120996 0.751268 11.1678 2.16147 13.4207
203 1 0.627844 0.00134431 0.875969 11.2158 0.0240148 15.6483
204 1 0.506354 0.122751 0.868677 9.0455 2.19282 15.518
205 1 0.751768 0.00318689 0.742957 13.4296 0.0569306 13.2722
206 1 0.878589 0.122573 0.754604 15.6951 2.18965 13.4802
207 1 0.876096 -0.00578233 0.877855 15.6506 -0.103296 15.682
208 1 0.751023 0.127046 0.868805 13.4163 2.26955 15.5203
209 1 0.00159444 0.252998 0.754422 0.0284831 4.51955 13.477
210 1 0.113752 0.381867 0.751239 2.03206 6.82167 13.4201
211 1 0.125665 0.244455 0.881336 2.24488 4.36694 15.7442
212 1 -0.00187466 0.380071 0.876328 -0.0334889 6.78959 15.6547
213 1 0.246469 0.249834 0.756147 4.40292 4.46304 13.5078
214 1 0.375308 0.376066 0.749397 6.7045 6.71804 13.3872
215 1 0.383349 0.250603 0.871554 6.84814 4.47678 15.5694
216 1 0.250851 0.373631 0.869396 4.48121 6.67454 15.5309
217 1 0.506536 0.251828 0.751038 9.04876 4.49866 13.4165
218 1 0.626323 0.374264 0.75048 11.1886 6.68586 13.4066
219 1 0.623388 0.253077 0.881157 11.1362 4.52098 15.741
220 1 0.499711 0.377573 0.874009 8.92684 6.74496 15.6133
221 1 0.752275 0.247379 0.750757 13.4386 4.41917 13.4115
222 1 0.87947 0.373593 0.746495 15.7108 6.67387 13.3354
223 1 0.875766 0.255026 0.868891 15.6447 4.55579 15.5219
224 1 0.742959 0.375944 0.878549 13.2722 6.71586 15.6944
225 1 -0.00245267 0.506127 0.751721 -0.0438145 9.04145 13.4287
226 1 0.1232 0.622725 0.742368 2.20085 11.1244 13.2617
227 1 0.130273 0.508342 0.874474 2.3272 9.08102 15.6216
228 1 -0.00210736 0.631969 0.875282 -0.0376459 11.2895 15.636
229 1 0.251542 0.496308 0.744967 4.49355 8.86604 13.3081
230 1 0.376792 0.62174 0.748813 6.73102 11.1068 13.3768
231 1 0.375467 0.499961 0.881516 6.70734 8.93131 15.7474
232 1 0.24748 0.628927 0.874995 4.42098 11.2352 15.6309
233 1 0.504192 0.499681 0.755103 9.00689 8.92631 13.4892
234 1 0.627652 0.62587 0.74906 11.2124 11.1805 13.3812
235 1 0.625898 0.503937 0.870453 11.181 9.00232 15.5498
236 1 0.498506 0.628118 0.876648 8.90532 11.2207 15.6604
237 1 0.756695 0.497501 0.749902 13.5176 8.88736 13.3963
238 1 0.874671 0.626068 0.747414 15.6251 11.1841 13.3518
239 1 0.873884 0.498068 0.863701 15.6111 8.89749 15.4292
240 1 0.752762 0.628637 0.877653 13.4473 11.23 15.6784
241 1 0.000714623 0.747365 0.749418 0.012766 13.3509 13.3876
242 1 0.115033 0.87091 0.747593 2.05495 15.5579 13.355
243 1 0.130096 0.74554 0.875411 2.32404 13.3183 15.6383
244 1 -0.00363182 0.874078 0.879089 -0.0648788 15.6145 15.704
245 1 0.25114 0.756692 0.74946 4.48637 13.5176 13.3883
246 1 0.375498 0.879248 0.754829 6.7079 15.7069 13.4843
247 1 0.3787 0.750859 0.871394 6.7651 13.4133 15.5666
248 1 0.247709 0.872552 0.86989 4.42508 15.5873 15.5397
249 1 0.502999 0.748517 0.748089 8.98558 13.3715 13.3639
250 1 0.626064 0.875615 0.753573 11.184 15.642 13.4618
251 1 0.61746 0.752047 0.879278 11.0303 13.4346 15.7074
252 1 0.504059 0.878211 0.874819 9.00452 15.6884 15.6278
253 1 0.752864 0.751244 0.752085 13.4492 13.4202 13.4353
254 1 0.879041 0.874877 0.75244 15.7032 15.6288 13.4416
255 1 0.869133 0.751816 0.879895 15.5262 13.4304 15.7184
256 1 0.743462 0.875589 0.878913 13.2812 15.6415 15.7009
ITEM: TIMESTEP
500
ITEM: NUMBER OF ATOMS
256
ITEM: BOX BOUNDS xy xz yz pp pp pp
0.0000000000000000e+00 1.7864000000000001e+01 0.0000000000000000e+00
0.0000000000000000e+00 1.7864000000000001e+01 0.0000000000000000e+00
0.0000000000000000e+00 1.7864000000000001e+01 0.0000000000000000e+00
ITEM: ATOMS id type xs ys zs x y z
1 1 0.00672049 0.00131774 0.00242399 0.120055 0.0235401 0.0433022
2 1 0.126163 0.128936 0.000219004 2.25377 2.30332 0.00391228
3 1 0.131568 -0.00346071 0.126768 2.35034 -0.0618221 2.26459
4 1 0.00591948 0.12263 0.122585 0.105746 2.19067 2.18986
5 1 0.247639 -0.00212218 -0.0060325 4.42382 -0.0379105 -0.107765
6 1 0.380623 0.129379 0.000748111 6.79944 2.31123 0.0133643
7 1 0.372485 0.00211112 0.122128 6.65408 0.0377131 2.1817
8 1 0.244918 0.122123 0.12405 4.37521 2.18161 2.21602
9 1 0.499217 0.00364899 -0.000731147 8.91802 0.0651855 -0.0130612
10 1 0.630188 0.126638 -0.000212788 11.2577 2.26225 -0.00380124
11 1 0.63164 0.00156417 0.135248 11.2836 0.0279423 2.41607
12 1 0.507993 0.125238 0.125317 9.07479 2.23726 2.23866
13 1 0.754134 0.00149826 -0.000893505 13.4719 0.0267649 -0.0159616
14 1 0.877846 0.124621 -0.0054921 15.6818 2.22623 -0.0981109
15 1 0.874043 -0.00263616 0.122426 15.6139 -0.0470924 2.18702
16 1 0.750955 0.122989 0.12158 13.4151 2.19708 2.1719
17 1 -0.0071694 0.256512 0.000630586 -0.128074 4.58233 0.0112648
18 1 0.121138 0.3833 -0.0100184 2.164 6.84727 -0.17897
19 1 0.126046 0.251355 0.121452 2.25168 4.49021 2.16961
20 1 0.00521632 0.380399 0.128531 0.0931844 6.79545 2.29608
21 1 0.254331 0.256647 -0.00185223 4.54338 4.58473 -0.0330882
22 1 0.370332 0.372523 -0.00420041 6.61562 6.65474 -0.0750361
23 1 0.375676 0.246391 0.122991 6.71108 4.40154 2.1971
24 1 0.247065 0.38029 0.123532 4.41356 6.7935 2.20677
25 1 0.50234 0.250791 0.00196205 8.97381 4.48013 0.0350501
26 1 0.627728 0.382313 0.00279638 11.2137 6.82963 0.0499546
27 1 0.626303 0.257858 0.125429 11.1883 4.60638 2.24066
28 1 0.496958 0.372708 0.126922 8.87766 6.65805 2.26733
29 1 0.757313 0.248734 0.00338897 13.5286 4.44338 0.0605405
30 1 0.872498 0.383052 -8.47715e-06 15.5863 6.84284 -0.000151436
31 1 0.876832 0.25388 0.126433 15.6637 4.53531 2.25861
32 1 0.752889 0.378723 0.117184 13.4496 6.7655 2.09338
33 1 -0.00203987 0.508236 -0.00471624 -0.0364403 9.07912 -0.0842508
34 1 0.127109 0.627323 0.00390527 2.27067 11.2065 0.0697637
35 1 0.132031 0.50693 0.128251 2.3586 9.0558 2.29108
36 1 0.00469802 0.62388 0.123073 0.0839254 11.145 2.19857
37 1 0.248403 0.499093 -0.0017461 4.43747 8.91579 -0.0311923
38 1 0.368592 0.627743 0.000769063 6.58452 11.214 0.0137385
39 1 0.368465 0.501344 0.125455 6.58225 8.95601 2.24113
40 1 0.244471 0.63267 0.134621 4.36724 11.302 2.40487
41 1 0.498259 0.501861 0.00438271 8.90089 8.96524 0.0782927
42 1 0.626645 0.617008 -0.00111648 11.1944 11.0222 -0.0199447
43 1 0.632304 0.497136 0.126689 11.2955 8.88083 2.26318
44 1 0.503321 0.618122 0.127908 8.99133 11.0421 2.28495
45 1 0.758058 0.507623 -0.00945498 13.5419 9.06818 -0.168904
46 1 0.879587 0.628856 0.000961078 15.7129 11.2339 0.0171687
47 1 0.872906 0.503756 0.125949 15.5936 8.9991 2.24995
48 1 0.749062 0.625125 0.122046 13.3812 11.1672 2.18024
49 1 0.00454232 0.752512 0.00528136 0.0811441 13.4429 0.0943462
50 1 0.128774 0.877353 -0.00419411 2.30042 15.673 -0.0749235
51 1 0.124605 0.751279 0.12519 2.22595 13.4209 2.2364
52 1 0.00440264 0.882032 0.129871 0.0786488 15.7566 2.32001
53 1 0.253542 0.754951 -0.0022079 4.52927 13.4864 -0.039442
54 1 0.372758 0.874016 -0.0032772 6.65895 15.6134 -0.058544
55 1 0.381579 0.747047 0.128245 6.81653 13.3453 2.29097
56 1 0.250334 0.870664 0.121934 4.47197 15.5535 2.17824
57 1 0.49435 0.74512 0.000728309 8.83107 13.3108 0.0130105
58 1 0.619266 0.882001 0.00412237 11.0626 15.7561 0.073642
59 1 0.623395 0.746129 0.121515 11.1363 13.3288 2.17074
60 1 0.501497 0.878676 0.122129 8.95874 15.6967 2.18172
61 1 0.744636 0.747854 -0.00122201 13.3022 13.3597 -0.02183
62 1 0.878377 0.870811 0.0072023 15.6913 15.5562 0.128662
63 1 0.871815 0.746103 0.123784 15.5741 13.3284 2.21128
64 1 0.75004 0.871477 0.118125 13.3987 15.5681 2.11018
65 1 -0.00573769 0.00467767 0.251667 -0.102498 0.0835618 4.49578
66 1 0.127262 0.120279 0.256354 2.27341 2.14866 4.57951
67 1 0.121586 0.000949755 0.381656 2.172 0.0169664 6.8179
68 1 -0.0113444 0.125212 0.377699 -0.202655 2.23678 6.74721
69 1 0.255185 -0.00839368 0.247926 4.55863 -0.149945 4.42896
70 1 0.375946 0.121732 0.242842 6.71591 2.17462 4.33813
71 1 0.369545 -0.00496167 0.375047 6.60156 -0.0886353 6.69984
72 1 0.254461 0.118708 0.371708 4.54568 2.1206 6.64019
73 1 0.498154 0.00114021 0.246602 8.89902 0.0203688 4.40529
74 1 0.624933 0.126814 0.254958 11.1638 2.2654 4.55456